Siesta Version  : 4.1.5
Architecture    : unknown
Compiler version: GNU Fortran (GCC) 9.4.0
Compiler flags  : mpifort -march=nocona -mtune=haswell -ftree-vectorize -fPIC -fstack-protectorr-strong -fno-plt -O2 -ffunction-sections -pipe
PP flags        : -DFC_HAVE_ABORT -DCDF -DMPI -DSIESTA__MRRR -DNCDF -DNCDF_4
Libraries       : libncdf.a libfdict.a -lscalapack -llapack -lblas -lnetcdff -lnetcdf -lhdf5_hll -lhdf5 -lz
PARALLEL version
NetCDF support
NetCDF-4 support

* Running on 4 nodes in parallel
>> Start of run:   8-APR-2025  15:10:31

                           ***********************       
                           *  WELCOME TO SIESTA  *       
                           ***********************       

reinit: Reading from zgnr.fdf

reinit: -----------------------------------------------------------------------
reinit: System Name: 
reinit: -----------------------------------------------------------------------
reinit: System Label: zgnr
reinit: -----------------------------------------------------------------------

initatom: Reading input for the pseudopotentials and atomic orbitals ----------
Species number:   1 Atomic number:    6 Label: C.gga
Species number:   2 Atomic number:    1 Label: H.gga

Ground state valence configuration:   2s02  2p02
Reading pseudopotential information in formatted form from C.gga.psf

Valence configuration for pseudopotential generation:
2s( 2.00) rc: 1.29
2p( 2.00) rc: 1.29
3d( 0.00) rc: 1.29
4f( 0.00) rc: 1.29
Ground state valence configuration:   1s01
Reading pseudopotential information in formatted form from H.gga.psf

Valence configuration for pseudopotential generation:
1s( 1.00) rc: 1.25
2p( 0.00) rc: 1.25
3d( 0.00) rc: 1.25
For C.gga, standard SIESTA heuristics set lmxkb to 3
 (one more than the basis l, including polarization orbitals).
Use PS.lmax or PS.KBprojectors blocks to override.
For H.gga, standard SIESTA heuristics set lmxkb to 2
 (one more than the basis l, including polarization orbitals).
Use PS.lmax or PS.KBprojectors blocks to override.

<basis_specs>
===============================================================================
C.gga                Z=   6    Mass=  12.010        Charge= 0.17977+309
Lmxo=1 Lmxkb= 3    BasisType=split      Semic=F
L=0  Nsemic=0  Cnfigmx=2
          i=1  nzeta=2  polorb=0  (2s)
            splnorm:   0.15000    
               vcte:    0.0000    
               rinn:    0.0000    
               qcoe:    0.0000    
               qyuk:    0.0000    
               qwid:   0.10000E-01
                rcs:    0.0000      0.0000    
            lambdas:    1.0000      1.0000    
L=1  Nsemic=0  Cnfigmx=2
          i=1  nzeta=2  polorb=1  (2p)
            splnorm:   0.15000    
               vcte:    0.0000    
               rinn:    0.0000    
               qcoe:    0.0000    
               qyuk:    0.0000    
               qwid:   0.10000E-01
                rcs:    0.0000      0.0000    
            lambdas:    1.0000      1.0000    
-------------------------------------------------------------------------------
L=0  Nkbl=1  erefs: 0.17977+309
L=1  Nkbl=1  erefs: 0.17977+309
L=2  Nkbl=1  erefs: 0.17977+309
L=3  Nkbl=1  erefs: 0.17977+309
===============================================================================
</basis_specs>

atom: Called for C.gga                 (Z =   6)

read_vps: Pseudopotential generation method:
read_vps: ATM3      Troullier-Martins                       
Valence charge for ps generation:    4.00000

xc_check: Exchange-correlation functional:
xc_check: GGA PBEsol
xc_check: WARNING: Pseudopotential generated with GGA PBE functional
V l=0 = -2*Zval/r beyond r=  1.5418
V l=1 = -2*Zval/r beyond r=  1.5418
V l=2 = -2*Zval/r beyond r=  1.5418
V l=3 = -2*Zval/r beyond r=  1.5418
All V_l potentials equal beyond r=  1.2782
This should be close to max(r_c) in ps generation
All pots = -2*Zval/r beyond r=  1.5418

VLOCAL1: 99.0% of the norm of Vloc inside     26.570 Ry
VLOCAL1: 99.9% of the norm of Vloc inside     60.555 Ry
atom: Maximum radius for 4*pi*r*r*local-pseudopot. charge    1.54183
atom: Maximum radius for r*vlocal+2*Zval:    1.32701
GHOST: No ghost state for L =  0
GHOST: No ghost state for L =  1
GHOST: No ghost state for L =  2
GHOST: No ghost state for L =  3

KBgen: Kleinman-Bylander projectors: 
   l= 0   rc=  1.747182   el= -0.997439   Ekb=  7.311927   kbcos=  0.286848
   l= 1   rc=  1.769164   el= -0.377369   Ekb= -4.600208   kbcos= -0.290877
   l= 2   rc=  2.030003   el=  0.001971   Ekb= -1.208366   kbcos= -0.005405
   l= 3   rc=  2.160953   el=  0.003065   Ekb= -0.509577   kbcos= -0.000546

KBgen: Total number of Kleinman-Bylander projectors:   16
atom: -------------------------------------------------------------------------

atom: SANKEY-TYPE ORBITALS:
atom: Selected multiple-zeta basis: split     

SPLIT: Orbitals with angular momentum L= 0

SPLIT: Basis orbitals for state 2s

SPLIT: PAO cut-off radius determined from an
SPLIT: energy shift=  0.020000 Ry

   izeta = 1
                 lambda =    1.000000
                     rc =    4.191849
                 energy =   -0.980017
                kinetic =    0.915804
    potential(screened) =   -1.895821
       potential(ionic) =   -5.502711

   izeta = 2
                 rmatch =    3.389284
              splitnorm =    0.150000
                 energy =   -0.848331
                kinetic =    1.361943
    potential(screened) =   -2.210274
       potential(ionic) =   -6.040226

SPLIT: Orbitals with angular momentum L= 1

SPLIT: Basis orbitals for state 2p

SPLIT: PAO cut-off radius determined from an
SPLIT: energy shift=  0.020000 Ry

   izeta = 1
                 lambda =    1.000000
                     rc =    4.870301
                 energy =   -0.357216
                kinetic =    2.552637
    potential(screened) =   -2.909853
       potential(ionic) =   -6.414633

   izeta = 2
                 rmatch =    3.475094
              splitnorm =    0.150000
                 energy =   -0.217927
                kinetic =    3.709207
    potential(screened) =   -3.927134
       potential(ionic) =   -7.780556

POLgen: Perturbative polarization orbital with L=  2

POLgen: Polarization orbital for state 2p

   izeta = 1
                     rc =    4.870301
                 energy =    1.288068
                kinetic =    2.597881
    potential(screened) =   -1.309813
       potential(ionic) =   -4.258280
atom: Total number of Sankey-type orbitals: 13

atm_pop: Valence configuration (for local Pseudopot. screening):
 2s( 2.00)                                                            
 2p( 2.00)                                                            
Vna: chval, zval:    4.00000   4.00000

Vna:  Cut-off radius for the neutral-atom potential:   4.870301

atom: _________________________________________________________________________

<basis_specs>
===============================================================================
H.gga                Z=   1    Mass=  1.0100        Charge= 0.17977+309
Lmxo=0 Lmxkb= 2    BasisType=split      Semic=F
L=0  Nsemic=0  Cnfigmx=1
          i=1  nzeta=2  polorb=1  (1s)
            splnorm:   0.15000    
               vcte:    0.0000    
               rinn:    0.0000    
               qcoe:    0.0000    
               qyuk:    0.0000    
               qwid:   0.10000E-01
                rcs:    0.0000      0.0000    
            lambdas:    1.0000      1.0000    
-------------------------------------------------------------------------------
L=0  Nkbl=1  erefs: 0.17977+309
L=1  Nkbl=1  erefs: 0.17977+309
L=2  Nkbl=1  erefs: 0.17977+309
===============================================================================
</basis_specs>

atom: Called for H.gga                 (Z =   1)

read_vps: Pseudopotential generation method:
read_vps: ATM3      Troullier-Martins                       
Valence charge for ps generation:    1.00000

xc_check: Exchange-correlation functional:
xc_check: GGA PBEsol
xc_check: WARNING: Pseudopotential generated with GGA PBE functional
V l=0 = -2*Zval/r beyond r=  1.2343
V l=1 = -2*Zval/r beyond r=  1.2189
V l=2 = -2*Zval/r beyond r=  1.2189
All V_l potentials equal beyond r=  1.2343
This should be close to max(r_c) in ps generation
All pots = -2*Zval/r beyond r=  1.2343

VLOCAL1: 99.0% of the norm of Vloc inside     28.493 Ry
VLOCAL1: 99.9% of the norm of Vloc inside     64.935 Ry
atom: Maximum radius for 4*pi*r*r*local-pseudopot. charge    1.45251
atom: Maximum radius for r*vlocal+2*Zval:    1.21892
GHOST: No ghost state for L =  0
GHOST: No ghost state for L =  1
GHOST: No ghost state for L =  2

KBgen: Kleinman-Bylander projectors: 
   l= 0   rc=  1.364359   el= -0.460674   Ekb= -2.023531   kbcos= -0.339150
   l= 1   rc=  1.434438   el=  0.001076   Ekb= -0.443306   kbcos= -0.022179
   l= 2   rc=  1.470814   el=  0.002010   Ekb= -0.140469   kbcos= -0.002805

KBgen: Total number of Kleinman-Bylander projectors:    9
atom: -------------------------------------------------------------------------

atom: SANKEY-TYPE ORBITALS:
atom: Selected multiple-zeta basis: split     

SPLIT: Orbitals with angular momentum L= 0

SPLIT: Basis orbitals for state 1s

SPLIT: PAO cut-off radius determined from an
SPLIT: energy shift=  0.020000 Ry

   izeta = 1
                 lambda =    1.000000
                     rc =    4.708991
                 energy =   -0.440502
                kinetic =    0.959926
    potential(screened) =   -1.400428
       potential(ionic) =   -1.945180

   izeta = 2
                 rmatch =    3.807029
              splitnorm =    0.150000
                 energy =   -0.326737
                kinetic =    1.538043
    potential(screened) =   -1.864780
       potential(ionic) =   -2.438343

POLgen: Perturbative polarization orbital with L=  1

POLgen: Polarization orbital for state 1s

   izeta = 1
                     rc =    4.708991
                 energy =    0.761925
                kinetic =    1.458176
    potential(screened) =   -0.696252
       potential(ionic) =   -1.195240
atom: Total number of Sankey-type orbitals:  5

atm_pop: Valence configuration (for local Pseudopot. screening):
 1s( 1.00)                                                            
Vna: chval, zval:    1.00000   1.00000

Vna:  Cut-off radius for the neutral-atom potential:   4.708991

atom: _________________________________________________________________________

prinput: Basis input ----------------------------------------------------------

PAO.BasisType split     

%block ChemicalSpeciesLabel
    1    6 C.gga                   # Species index, atomic number, species label
    2    1 H.gga                   # Species index, atomic number, species label
%endblock ChemicalSpeciesLabel

%block PAO.Basis                 # Define Basis set
C.gga                 2                    # Species label, number of l-shells
 n=2   0   2                         # n, l, Nzeta 
   4.192      3.389   
   1.000      1.000   
 n=2   1   2 P   1                   # n, l, Nzeta, Polarization, NzetaPol
   4.870      3.475   
   1.000      1.000   
H.gga                 1                    # Species label, number of l-shells
 n=1   0   2 P   1                   # n, l, Nzeta, Polarization, NzetaPol
   4.709      3.807   
   1.000      1.000   
%endblock PAO.Basis

prinput: ----------------------------------------------------------------------

Dumping basis to NetCDF file C.gga.ion.nc
Dumping basis to NetCDF file H.gga.ion.nc
coor:   Atomic-coordinates input format  =     Cartesian coordinates
coor:                                          (in Angstroms)

siesta: Atomic coordinates (Bohr) and species
siesta:      0.02015  28.97021  23.62159  2        1
siesta:      4.71613  26.86493  23.62159  1        2
siesta:      2.36816  25.56085  23.62159  1        3
siesta:      2.36835  22.81007  23.62159  1        4
siesta:      0.02043  21.46384  23.62159  1        5
siesta:      4.71673  18.72947  23.62159  1        6
siesta:      2.36883  17.38320  23.62159  1        7
siesta:      2.36904  14.63238  23.62159  1        8
siesta:      0.02111  13.32826  23.62159  1        9
siesta:      0.02146  11.22293  23.62159  2       10

siesta: System type = chain     

initatomlists: Number of atoms, orbitals, and projectors:     10   114   146

siesta: ******************** Simulation parameters ****************************
siesta:
siesta: The following are some of the parameters of the simulation.
siesta: A complete list of the parameters used, including default values,
siesta: can be found in file out.fdf
siesta:
redata: Spin configuration                          = collinear
redata: Number of spin components                   = 2
redata: Time-Reversal Symmetry                      = T
redata: Spin spiral                                 = F
redata: Long output                                 =   F
redata: Number of Atomic Species                    =        2
redata: Charge density info will appear in .RHO file
redata: Write Mulliken Pop.                         = NO
redata: Matel table size (NRTAB)                    =     1024
redata: Mesh Cutoff                                 =   300.0000 Ry
redata: Net charge of the system                    =     0.0000 |e|
redata: Min. number of SCF Iter                     =        0
redata: Max. number of SCF Iter                     =     1000
redata: SCF convergence failure will abort job
redata: SCF mix quantity                            = Hamiltonian
redata: Mix DM or H after convergence               =   F
redata: Recompute H after scf cycle                 =   F
redata: Mix DM in first SCF step                    =   T
redata: Write Pulay info on disk                    =   F
redata: New DM Occupancy tolerance                  = 0.000000000001
redata: No kicks to SCF
redata: DM Mixing Weight for Kicks                  =     0.5000
redata: Require Harris convergence for SCF          =   F
redata: Harris energy tolerance for SCF             =     0.000100 eV
redata: Require DM convergence for SCF              =   T
redata: DM tolerance for SCF                        =     0.000050
redata: Require EDM convergence for SCF             =   F
redata: EDM tolerance for SCF                       =     0.001000 eV
redata: Require H convergence for SCF               =   T
redata: Hamiltonian tolerance for SCF               =     0.001000 eV
redata: Require (free) Energy convergence for SCF   =   F
redata: (free) Energy tolerance for SCF             =     0.000100 eV
redata: Antiferro initial spin density              =   F
redata: Using Saved Data (generic)                  =   F
redata: Use continuation files for DM               =   T
redata: Neglect nonoverlap interactions             =   F
redata: Method of Calculation                       = Diagonalization
redata: Electronic Temperature                      =   299.9869 K
redata: Fix the spin of the system                  =   F
redata: Dynamics option                             = Single-point calculation
mix.SCF: Pulay mixing                            = Pulay
mix.SCF:    Variant                              = stable
mix.SCF:    History steps                        = 4
mix.SCF:    Linear mixing weight                 =     0.300000
mix.SCF:    Mixing weight                        =     0.300000
mix.SCF:    SVD condition                        = 0.1000E-07
mix.SCF: Spin-component mixing                   all
redata: Save all siesta data in one NC              =   F
redata: ***********************************************************************

%block SCF.Mixers
  Pulay
%endblock SCF.Mixers

%block SCF.Mixer.Pulay
  # Mixing method
  method pulay
  variant stable

  # Mixing options
  weight 0.3000
  weight.linear 0.3000
  history 4
%endblock SCF.Mixer.Pulay

DM_history_depth set to one: no extrapolation allowed by default for geometry relaxation
Size of DM history Fstack: 1
Total number of electrons:    34.000000
Total ionic charge:    34.000000

* ProcessorY, Blocksize:    2  24


* Orbital distribution balance (max,min):    42    24

k-point displ. along   1 input, could be:     0.00    0.50
 Kpoints in:           11 . Kpoints trimmed:           11

siesta: k-grid: Number of k-points =    11
siesta: k-grid: Cutoff (effective) =    12.500 Ang
siesta: k-grid: Supercell and displacements
siesta: k-grid:   20   0   0      0.000
siesta: k-grid:    0   1   0      0.000
siesta: k-grid:    0   0   1      0.000

diag: Algorithm                                     = D&C
diag: Parallel over k                               =   F
diag: Use parallel 2D distribution                  =   T
diag: Parallel block-size                           = 24
diag: Parallel distribution                         =     2 x     2
diag: Used triangular part                          = Lower
diag: Absolute tolerance                            =  0.100E-15
diag: Orthogonalization factor                      =  0.100E-05
diag: Memory factor                                 =  1.0000
Using current reciprocal lattice vectors for BandLinesScale
Beware any cell changes by the end of the run
Using current reciprocal lattice vectors for BandLinesScale
Beware any cell changes by the end of the run

superc: Internal auxiliary supercell:     7 x     1 x     1  =       7
superc: Number of atoms, orbitals, and projectors:     70    798   1022


ts: **************************************************************
ts: Save H and S matrices                           =    F
ts: Save DM and EDM matrices                        =    F
ts: Only save the overlap matrix S                  =    F
ts: **************************************************************

************************ Begin: TS CHECKS AND WARNINGS ************************
************************ End: TS CHECKS AND WARNINGS **************************


                     ====================================
                        Single-point calculation
                     ====================================

outcoor: Atomic coordinates (Ang):                          
    0.01066181   15.33036796   12.50000000   2       1  H.gga
    2.49566553   14.21630533   12.50000000   1       2  C.gga
    1.25317546   13.52621420   12.50000000   1       3  C.gga
    1.25327404   12.07056695   12.50000000   1       4  C.gga
    0.01081318   11.35816903   12.50000000   1       5  C.gga
    2.49598561    9.91120682   12.50000000   1       6  C.gga
    1.25353112    9.19879105   12.50000000   1       7  C.gga
    1.25364240    7.74312157   12.50000000   1       8  C.gga
    0.01116860    7.05301058   12.50000000   1       9  C.gga
    0.01135601    5.93891594   12.50000000   2      10  H.gga

superc: Internal auxiliary supercell:     7 x     1 x     1  =       7
superc: Number of atoms, orbitals, and projectors:     70    798   1022

outcell: Unit cell vectors (Ang):
        2.485000    0.000000    0.000000
        0.000000   30.000000    0.000000
        0.000000    0.000000   25.000000

outcell: Cell vector modules (Ang)   :    2.485000   30.000000   25.000000
outcell: Cell angles (23,13,12) (deg):     90.0000     90.0000     90.0000
outcell: Cell volume (Ang**3)        :   1863.7500
<dSpData1D:S at geom step 0
  <sparsity:sparsity for geom step 0
    nrows_g=114 nrows=42 sparsity=.9748 nnzs=12668, refcount: 7>
  <dData1D:(new from dSpData1D) n=12668, refcount: 1>
refcount: 1>
new_DM -- step:     1
Initializing Density Matrix...

Attempting to read DM from file... Failed...
DM filled with atomic data (user-defined):
<dSpData2D:DM initialized from atoms
  <sparsity:sparsity for geom step 0
    nrows_g=114 nrows=42 sparsity=.9748 nnzs=12668, refcount: 8>
  <dData2D:DM n=12668 m=2, refcount: 1>
refcount: 1>
     spin moment: S , {S} =   -1.00000       0.0       0.0  -1.00000
No. of atoms with KB's overlaping orbs in proc 0. Max # of overlaps:      27     177
New grid distribution:   1
           1       1:   15    1:   80    1:   68
           2       1:   15    1:   80   69:  135
           3       1:   15   81:  160    1:   68
           4       1:   15   81:  160   69:  135

InitMesh: MESH =    30 x   320 x   270 =     2592000
InitMesh: (bp) =    15 x   160 x   135 =      324000
InitMesh: Mesh cutoff (required, used) =   300.000   314.455 Ry
ExtMesh (bp) on 0 =    79 x   136 x   124 =     1332256
New grid distribution:   2
           1       1:   15    1:   57    1:   68
           2       1:   15    1:   57   69:  135
           3       1:   15   58:  160    1:   68
           4       1:   15   58:  160   69:  135
New grid distribution:   3
           1       1:   15    1:   57    1:   68
           2       1:   15    1:   57   69:  135
           3       1:   15   58:  160    1:   68
           4       1:   15   58:  160   69:  135
Setting up quadratic distribution...
ExtMesh (bp) on 0 =    79 x   113 x   124 =     1106948
PhiOnMesh: Number of (b)points on node 0 =                58140
PhiOnMesh: nlist on node 0 =               308374

stepf: Fermi-Dirac step function

siesta: Program's energy decomposition (eV):
siesta: Ebs     =      -376.710540
siesta: Eions   =      2475.376297
siesta: Ena     =       756.279502
siesta: Ekin    =       928.815768
siesta: Enl     =       -41.329939
siesta: Eso     =         0.000000
siesta: Edftu   =         0.000000
siesta: DEna    =       -38.463544
siesta: DUscf   =         3.478477
siesta: DUext   =         0.000000
siesta: Exc     =      -397.434957
siesta: eta*DQ  =         0.000000
siesta: Emadel  =         0.000000
siesta: Emeta   =         0.000000
siesta: Emolmec =         0.000000
siesta: Ekinion =         0.000000
siesta: Eharris =     -1266.132033
siesta: Etot    =     -1264.030990
siesta: FreeEng =     -1264.032375

        iscf     Eharris(eV)        E_KS(eV)     FreeEng(eV)     dDmax    Ef(eV) dHmax(eV)
   scf:    1    -1266.132033    -1264.030990    -1264.032375  0.966102 -5.253505  6.085256
     spin moment: S , {S} =   -0.01266       0.0       0.0  -0.01266
timer: Routine,Calls,Time,% = IterSCF        1      68.090  96.81
   scf:    2    -1265.171846    -1264.671891    -1264.672324  0.029533 -4.293897  5.056149
     spin moment: S , {S} =   -0.00053       0.0       0.0  -0.00053
   scf:    3    -1264.955414    -1264.897365    -1264.899994  0.047431 -3.493792  2.418097
     spin moment: S , {S} =    0.00019       0.0       0.0   0.00019
   scf:    4    -1264.652283    -1264.922977    -1264.925960  0.027374 -3.496131  2.829012
     spin moment: S , {S} =    0.00267       0.0       0.0   0.00267
   scf:    5    -1265.057108    -1265.025943    -1265.026582  0.023220 -3.477194  1.571724
     spin moment: S , {S} =    0.00361       0.0       0.0   0.00361
   scf:    6    -1265.087429    -1265.055758    -1265.056141  0.021810 -3.478691  0.966151
     spin moment: S , {S} =    0.00201       0.0       0.0   0.00201
   scf:    7    -1265.119924    -1265.084820    -1265.084914  0.044438 -3.479809  0.145373
     spin moment: S , {S} =    0.00038       0.0       0.0   0.00038
   scf:    8    -1265.098718    -1265.091034    -1265.091056  0.006602 -3.487714  0.071944
     spin moment: S , {S} =    0.00005       0.0       0.0   0.00005
   scf:    9    -1265.095317    -1265.092973    -1265.092982  0.003206 -3.488727  0.059424
     spin moment: S , {S} =    0.00002       0.0       0.0   0.00002
   scf:   10    -1265.093671    -1265.093312    -1265.093320  0.000666 -3.485002  0.048180
     spin moment: S , {S} =    0.00001       0.0       0.0   0.00001
   scf:   11    -1265.094882    -1265.094019    -1265.094024  0.001768 -3.479467  0.035117
     spin moment: S , {S} =    0.00000       0.0       0.0   0.00000
   scf:   12    -1265.095363    -1265.094542    -1265.094544  0.002448 -3.472813  0.022755
     spin moment: S , {S} =    0.00000       0.0       0.0   0.00000
   scf:   13    -1265.094733    -1265.094615    -1265.094617  0.000889 -3.471270  0.011128
     spin moment: S , {S} =   -0.00000       0.0       0.0  -0.00000
   scf:   14    -1265.094639    -1265.094626    -1265.094628  0.000178 -3.470763  0.007625
     spin moment: S , {S} =   -0.00000       0.0       0.0  -0.00000
   scf:   15    -1265.094659    -1265.094640    -1265.094642  0.000347 -3.470307  0.002389
     spin moment: S , {S} =   -0.00000       0.0       0.0  -0.00000
   scf:   16    -1265.094647    -1265.094643    -1265.094645  0.000098 -3.470094  0.001999
     spin moment: S , {S} =   -0.00000       0.0       0.0  -0.00000
   scf:   17    -1265.094643    -1265.094643    -1265.094645  0.000044 -3.470204  0.001095
     spin moment: S , {S} =   -0.00000       0.0       0.0  -0.00000
   scf:   18    -1265.094644    -1265.094644    -1265.094645  0.000024 -3.470267  0.000884
     spin moment: S , {S} =   -0.00000       0.0       0.0  -0.00000

SCF Convergence by DM+H criterion
max |DM_out - DM_in|         :     0.0000241859
max |H_out - H_in|      (eV) :     0.0008844760
SCF cycle converged after 18 iterations

Using DM_out to compute the final energy and forces
No. of atoms with KB's overlaping orbs in proc 0. Max # of overlaps:      27     177

siesta: E_KS(eV) =            -1265.0946

siesta: E_KS - E_eggbox =     -1265.0946
     spin moment: S , {S} =   -0.00000       0.0       0.0  -0.00000

siesta: Atomic forces (eV/Ang):
----------------------------------------
   Tot    0.141090   -0.036472    0.000000
----------------------------------------
   Max    0.094876
   Res    0.034263    sqrt( Sum f_i^2 / 3N )
----------------------------------------
   Max    0.094876    constrained

Stress tensor Voigt[x,y,z,yz,xz,xy] (kbar):        0.23        0.17        0.00       -0.00       -0.00        0.02
(Free)E + p*V (eV/cell)    -1265.2533
Target enthalpy (eV/cell)    -1265.0946
Computing bands...

siesta: Band k vectors (Bohr**-1):
  ik            k
   1     0.000000     0.000000     0.000000
   2     0.006690     0.000000     0.000000
   3     0.013380     0.000000     0.000000
   4     0.020070     0.000000     0.000000
   5     0.026760     0.000000     0.000000
   6     0.033450     0.000000     0.000000
   7     0.040140     0.000000     0.000000
   8     0.046830     0.000000     0.000000
   9     0.053520     0.000000     0.000000
  10     0.060210     0.000000     0.000000
  11     0.066900     0.000000     0.000000
  12     0.073590     0.000000     0.000000
  13     0.080280     0.000000     0.000000
  14     0.086970     0.000000     0.000000
  15     0.093660     0.000000     0.000000
  16     0.100350     0.000000     0.000000
  17     0.107040     0.000000     0.000000
  18     0.113730     0.000000     0.000000
  19     0.120420     0.000000     0.000000
  20     0.127110     0.000000     0.000000
  21     0.133799     0.000000     0.000000
  22     0.140489     0.000000     0.000000
  23     0.147179     0.000000     0.000000
  24     0.153869     0.000000     0.000000
  25     0.160559     0.000000     0.000000
  26     0.167249     0.000000     0.000000
  27     0.173939     0.000000     0.000000
  28     0.180629     0.000000     0.000000
  29     0.187319     0.000000     0.000000
  30     0.194009     0.000000     0.000000
  31     0.200699     0.000000     0.000000
  32     0.207389     0.000000     0.000000
  33     0.214079     0.000000     0.000000
  34     0.220769     0.000000     0.000000
  35     0.227459     0.000000     0.000000
  36     0.234149     0.000000     0.000000
  37     0.240839     0.000000     0.000000
  38     0.247529     0.000000     0.000000
  39     0.254219     0.000000     0.000000
  40     0.260909     0.000000     0.000000
  41     0.267599     0.000000     0.000000
  42     0.274289     0.000000     0.000000
  43     0.280979     0.000000     0.000000
  44     0.287669     0.000000     0.000000
  45     0.294359     0.000000     0.000000
  46     0.301049     0.000000     0.000000
  47     0.307739     0.000000     0.000000
  48     0.314429     0.000000     0.000000
  49     0.321119     0.000000     0.000000
  50     0.327809     0.000000     0.000000
  51     0.334499     0.000000     0.000000
  52     0.341189     0.000000     0.000000
  53     0.347879     0.000000     0.000000
  54     0.354569     0.000000     0.000000
  55     0.361259     0.000000     0.000000
  56     0.367949     0.000000     0.000000
  57     0.374639     0.000000     0.000000
  58     0.381329     0.000000     0.000000
  59     0.388019     0.000000     0.000000
  60     0.394708     0.000000     0.000000
  61     0.401398     0.000000     0.000000
  62     0.408088     0.000000     0.000000
  63     0.414778     0.000000     0.000000
  64     0.421468     0.000000     0.000000
  65     0.428158     0.000000     0.000000
  66     0.434848     0.000000     0.000000
  67     0.441538     0.000000     0.000000
  68     0.448228     0.000000     0.000000
  69     0.454918     0.000000     0.000000
  70     0.461608     0.000000     0.000000
  71     0.468298     0.000000     0.000000
  72     0.474988     0.000000     0.000000
  73     0.481678     0.000000     0.000000
  74     0.488368     0.000000     0.000000
  75     0.495058     0.000000     0.000000
  76     0.501748     0.000000     0.000000
  77     0.508438     0.000000     0.000000
  78     0.515128     0.000000     0.000000
  79     0.521818     0.000000     0.000000
  80     0.528508     0.000000     0.000000
  81     0.535198     0.000000     0.000000
  82     0.541888     0.000000     0.000000
  83     0.548578     0.000000     0.000000
  84     0.555268     0.000000     0.000000
  85     0.561958     0.000000     0.000000
  86     0.568648     0.000000     0.000000
  87     0.575338     0.000000     0.000000
  88     0.582028     0.000000     0.000000
  89     0.588718     0.000000     0.000000
  90     0.595408     0.000000     0.000000
  91     0.602098     0.000000     0.000000
  92     0.608788     0.000000     0.000000
  93     0.615478     0.000000     0.000000
  94     0.622168     0.000000     0.000000
  95     0.628858     0.000000     0.000000
  96     0.635548     0.000000     0.000000
  97     0.642238     0.000000     0.000000
  98     0.648927     0.000000     0.000000
  99     0.655617     0.000000     0.000000
 100     0.662307     0.000000     0.000000
 101     0.668997     0.000000     0.000000

siesta: Band energies (eV):
  ik is       eps
   1  1  -22.2946  -21.4697  -20.1562  -18.4866  -15.4254  -13.2054  -10.7372  -10.4136   -9.4911   -9.4646
          -8.7955   -8.4283   -8.1039   -7.8301   -6.8751   -6.8483   -6.5299   -0.6172    1.6484    2.6587
    2.7803    3.9914    4.3221    4.4038    5.3179    5.4655    5.8742    6.7378    8.3014    8.6926
    9.2598    9.4509   10.5687   10.9637   11.1823   11.3762   11.3832   12.1128   12.6227   13.0600
   13.0602   13.7506   14.2885   14.4774   17.6340   18.4525   20.3024   20.4493   20.5464   21.2747
   21.3030   21.7691   22.0383   22.9757   23.4960   23.8551   24.9847   25.3955   25.7983   26.2961
   30.5610   30.6353   32.3199   33.6342   34.4005   34.9753   35.0319   36.1332   36.5961   37.8672
   38.3340   41.1175   42.8059   43.5834   44.4037   44.4992   45.1906   45.8267   46.9291   48.6847
   49.2377   49.9874   51.3561   52.4229   53.4291   54.4113   55.5166   56.4255   57.5368   58.4403
   58.7059   58.7837   60.2966   60.5666   67.3993   68.0959   70.4284   72.0431   72.3162   73.0244
   74.2907   78.8104   79.1245   80.4214   89.0073   89.8357   92.9744   96.9321  106.9288  111.0107
  120.0302  131.6589  134.6395  139.8030
   2  1  -22.2942  -21.4692  -20.1558  -18.4862  -15.4250  -13.2051  -10.7371  -10.4131   -9.4906   -9.4665
          -8.7978   -8.4282   -8.1034   -7.8321   -6.8769   -6.8487   -6.5294   -0.6174    1.6482    2.6593
    2.7806    3.9941    4.3215    4.4063    5.3196    5.4670    5.8748    6.7366    8.2988    8.6931
    9.2604    9.4541   10.5690   10.9634   11.1488   11.3828   11.4095   12.1124   12.6228   13.0552
   13.0595   13.7485   14.2877   14.4826   17.6343   18.4489   20.3024   20.4539   20.5463   21.2505
   21.3013   21.7932   22.0365   22.9751   23.4951   23.8462   24.9916   25.3919   25.7955   26.2935
   30.4141   30.7874   32.3078   33.6521   34.4034   34.9750   35.0302   36.1318   36.5985   37.8567
   38.3479   41.1181   42.8021   43.5695   44.4015   44.5021   45.1912   45.8182   46.9253   48.6798
   49.2440   49.9873   51.3625   52.4174   53.4308   54.4044   55.5257   56.4241   57.5492   58.4260
   58.7174   58.7930   60.3038   60.5656   67.3871   68.1027   70.4308   72.0435   72.3086   73.0392
   74.3128   78.8199   79.1333   80.4186   89.0139   89.8415   92.9823   96.9386  106.8798  111.0460
  120.0059  131.6680  134.6205  139.8232
   3  1  -22.2930  -21.4680  -20.1546  -18.4850  -15.4239  -13.2042  -10.7368  -10.4115   -9.4891   -9.4724
          -8.8044   -8.4278   -8.1018   -7.8380   -6.8823   -6.8501   -6.5278   -0.6179    1.6473    2.6612
    2.7816    4.0020    4.3198    4.4135    5.3247    5.4713    5.8764    6.7333    8.2910    8.6944
    9.2621    9.4637   10.5698   10.9626   11.0796   11.3817   11.4782   12.1110   12.6231   13.0404
   13.0580   13.7423   14.2854   14.4979   17.6353   18.4382   20.3026   20.4677   20.5460   21.1884
   21.2960   21.8551   22.0311   22.9733   23.4925   23.8201   25.0115   25.3810   25.7873   26.2858
   30.2408   30.9763   32.2730   33.7038   34.4119   34.9741   35.0251   36.1275   36.6057   37.8280
   38.3865   41.1200   42.7911   43.5281   44.3948   44.5109   45.1909   45.7951   46.9138   48.6653
   49.2624   49.9867   51.3817   52.4010   53.4358   54.3840   55.5517   56.4196   57.5867   58.3935
   58.7272   58.8350   60.3252   60.5625   67.3506   68.1230   70.4382   72.0452   72.2876   73.0816
   74.3789   78.8485   79.1597   80.4105   89.0336   89.8587   93.0059   96.9582  106.7377  111.1474
  119.9333  131.6951  134.5645  139.8833
   4  1  -22.2909  -21.4659  -20.1525  -18.4831  -15.4221  -13.2028  -10.7362  -10.4089   -9.4865   -9.4821
          -8.8153   -8.4271   -8.0993   -7.8478   -6.8914   -6.8525   -6.5252   -0.6187    1.6460    2.6643
    2.7832    4.0151    4.3169    4.4256    5.3331    5.4785    5.8790    6.7278    8.2785    8.6968
    9.2648    9.4795   10.5711   10.9614   11.0001   11.3798   11.5569   12.1088   12.6235   13.0166
   13.0555   13.7319   14.2815   14.5228   17.6368   18.4209   20.3028   20.4901   20.5454   21.1054
   21.2873   21.9377   22.0222   22.9704   23.4881   23.7788   25.0425   25.3631   25.7736   26.2729
   30.0716   31.1715   32.2201   33.7849   34.4260   34.9727   35.0165   36.1204   36.6178   37.7872
   38.4435   41.1231   42.7729   43.4608   44.3839   44.5254   45.1844   45.7643   46.8951   48.6413
   49.2917   49.9855   51.4134   52.3738   53.4436   54.3500   55.5916   56.4115   57.6497   58.3583
   58.7205   58.9102   60.3606   60.5579   67.2899   68.1565   70.4507   72.0494   72.2573   73.1474
   74.4879   78.8967   79.2038   80.3978   89.0663   89.8873   93.0450   96.9907  106.5150  111.3029
  119.8130  131.7397  134.4738  139.9806
   5  1  -22.2880  -21.4629  -20.1496  -18.4803  -15.4196  -13.2007  -10.7354  -10.4053   -9.4958   -9.4829
          -8.8305   -8.4263   -8.0957   -7.8615   -6.9040   -6.8558   -6.5216   -0.6199    1.6440    2.6686
    2.7854    4.0334    4.3128    4.4424    5.3449    5.4886    5.8828    6.7201    8.2618    8.7000
    9.2686    9.5010   10.5729   10.9172   10.9596   11.3772   11.6387   12.1056   12.6241   12.9846
   13.0520   13.7175   14.2760   14.5563   17.6391   18.3975   20.3032   20.5206   20.5445   21.0120
   21.2750   22.0097   22.0306   22.9664   23.4821   23.7249   25.0819   25.3383   25.7549   26.2552
   29.9073   31.3718   32.1540   33.8902   34.4453   34.9711   35.0042   36.1102   36.6347   37.7396
   38.5139   41.1275   42.7480   43.3693   44.3693   44.5457   45.1632   45.7362   46.8700   48.6082
   49.3302   49.9832   51.4574   52.3358   53.4538   54.3029   55.6405   56.3991   57.7386   58.3292
   58.7042   59.0043   60.4097   60.5522   67.2052   68.2032   70.4684   72.0577   72.2221   73.2317
   74.6384   78.9649   79.2656   80.3819   89.1121   89.9275   93.0993   97.0363  106.2272  111.4986
  119.6463  131.8007  134.3517  140.1118
   6  1  -22.2843  -21.4591  -20.1458  -18.4767  -15.4163  -13.1981  -10.7344  -10.4007   -9.5132   -9.4783
          -8.8498   -8.4255   -8.0912   -7.8790   -6.9201   -6.8602   -6.5170   -0.6214    1.6415    2.6740
    2.7883    4.0570    4.3075    4.4640    5.3600    5.5015    5.8875    6.7101    8.2415    8.7041
    9.2733    9.5277   10.5748   10.8333   10.9572   11.3739   11.7217   12.1013   12.6248   12.9458
   13.0476   13.6990   14.2690   14.5972   17.6419   18.3689   20.3036   20.5435   20.5581   20.9136
   21.2594   21.9937   22.1283   22.9613   23.4744   23.6610   25.1270   25.3070   25.7313   26.2326
   29.7479   31.5769   32.0790   34.0148   34.4693   34.9694   34.9880   36.0966   36.6563   37.6880
   38.5942   41.1333   42.7171   43.2557   44.3515   44.5717   45.1196   45.7214   46.8392   48.5663
   49.3762   49.9793   51.5133   52.2871   53.4653   54.2428   55.6930   56.3816   57.8528   58.3110
   58.6823   59.1108   60.4722   60.5462   67.0967   68.2624   70.4915   72.0721   72.1851   73.3308
   74.8286   79.0541   79.3450   80.3644   89.1709   89.9792   93.1683   97.0948  105.8883  111.7221
  119.4346  131.8771  134.2019  140.2728
   7  1  -22.2798  -21.4545  -20.1413  -18.4724  -15.4123  -13.1949  -10.7332  -10.3950   -9.5344   -9.4727
          -8.8731   -8.4247   -8.0856   -7.9003   -6.9397   -6.8655   -6.5113   -0.6233    1.6384    2.6806
    2.7916    4.0856    4.3010    4.4902    5.3783    5.5173    5.8934    6.6979    8.2184    8.7092
    9.2788    9.5590   10.5761   10.7500   10.9544   11.3698   11.8049   12.0957   12.6258   12.9013
   13.0422   13.6764   14.2604   14.6446   17.6454   18.3359   20.3040   20.5421   20.6016   20.8132
   21.2404   21.9741   22.2280   22.9550   23.4651   23.5893   25.1753   25.2696   25.7033   26.2054
   29.5935   31.7861   31.9988   34.1550   34.4974   34.9676   34.9680   36.0794   36.6829   37.6341
   38.6825   41.1403   42.6807   43.1220   44.3313   44.6031   45.0518   45.7252   46.8040   48.5162
   49.4279   49.9733   51.5807   52.2280   53.4773   54.1704   55.7438   56.3578   57.9895   58.3068
   58.6577   59.2270   60.5411   60.5475   66.9646   68.3339   70.5200   72.0939   72.1489   73.4417
   75.0570   79.1659   79.4418   80.3477   89.2426   90.0424   93.2514   97.1663  105.5101  111.9639
  119.1797  131.9673  134.0282  140.4597
   8  1  -22.2745  -21.4490  -20.1358  -18.4673  -15.4077  -13.1912  -10.7318  -10.3883   -9.5592   -9.4661
          -8.9002   -8.4241   -8.0790   -7.9252   -6.9627   -6.8718   -6.5045   -0.6256    1.6347    2.6881
    2.7954    4.1194    4.2932    4.5210    5.3999    5.5358    5.9003    6.6835    8.1932    8.7152
    9.2852    9.5942   10.5732   10.6713   10.9511   11.3650   11.8880   12.0886   12.6270   12.8525
   13.0359   13.6500   14.2504   14.6973   17.6495   18.2994   20.3044   20.5405   20.6472   20.7152
   21.2181   21.9511   22.3283   22.9477   23.4543   23.5118   25.2250   25.2266   25.6712   26.1738
   29.4440   31.9125   32.0021   34.3079   34.5289   34.9430   34.9673   36.0583   36.7142   37.5787
   38.7777   41.1487   42.6399   42.9703   44.3093   44.6400   44.9642   45.7459   46.7656   48.4585
   49.4840   49.9645   51.6589   52.1586   53.4887   54.0859   55.7885   56.3269   58.1411   58.3190
   58.6359   59.3517   60.5380   60.6351   66.8093   68.4171   70.5540   72.1102   72.1294   73.5619
   75.3218   79.3020   79.5556   80.3351   89.3272   90.1171   93.3480   97.2506  105.1019  112.2173
  118.8839  132.0699  133.8342  140.6686
   9  1  -22.2683  -21.4426  -20.1296  -18.4613  -15.4023  -13.1869  -10.7302  -10.3805   -9.5877   -9.4584
          -8.9309   -8.4237   -8.0714   -7.9538   -6.9891   -6.8791   -6.4968   -0.6283    1.6303    2.6966
    2.7997    4.1582    4.2843    4.5563    5.4246    5.5571    5.9082    6.6668    8.1666    8.7221
    9.2924    9.6329   10.5449   10.6185   10.9472   11.3594   11.9707   12.0798   12.6284   12.8005
   13.0288   13.6197   14.2388   14.7545   17.6542   18.2603   20.3047   20.5387   20.6041   20.7102
   21.1927   21.9247   22.4280   22.9393   23.4300   23.4420   25.1784   25.2741   25.6355   26.1380
   29.2992   31.8282   32.2180   34.4711   34.5628   34.9140   34.9680   36.0329   36.7504   37.5217
   38.8791   41.1586   42.5954   42.8024   44.2867   44.6820   44.8645   45.7791   46.7252   48.3940
   49.5431   49.9523   51.7475   52.0791   53.4981   53.9901   55.8241   56.2882   58.2857   58.3503
   58.6342   59.4840   60.5383   60.7343   66.6312   68.5115   70.5935   72.0800   72.1694   73.6895
   75.6209   79.4654   79.6847   80.3309   89.4248   90.2034   93.4572   97.3477  104.6709  112.4782
  118.5495  132.1830  133.6226  140.8966
  10  1  -22.2613  -21.4355  -20.1225  -18.4546  -15.3962  -13.1820  -10.7285  -10.3718   -9.6198   -9.4497
          -8.9652   -8.4237   -8.0628   -7.9858   -7.0188   -6.8875   -6.4880   -0.6313    1.6254    2.7060
    2.8045    4.2019    4.2740    4.5958    5.4522    5.5812    5.9171    6.6479    8.1394    8.7299
    9.3005    9.6744   10.4746   10.6086   10.9429   11.3531   12.0529   12.0689   12.6301   12.7465
   13.0209   13.5857   14.2256   14.8153   17.6594   18.2194   20.3049   20.5047   20.5365   20.7657
   21.1641   21.8950   22.5264   22.9300   23.3451   23.4284   25.1257   25.3214   25.5966   26.0985
   29.1592   31.7420   32.4378   34.5979   34.6427   34.8807   34.9708   36.0030   36.7915   37.4629
   38.9859   41.1698   42.5482   42.6208   44.2643   44.7292   44.7596   45.8204   46.6844   48.3233
   49.6046   49.9365   51.8458   51.9898   53.5043   53.8835   55.8486   56.2415   58.3605   58.4110
   58.7013   59.6233   60.5432   60.8444   66.4307   68.6165   70.6382   72.0506   72.2231   73.8224
   75.9515   79.6597   79.8253   80.3423   89.5356   90.3014   93.5783   97.4574  104.2232  112.7439
  118.1790  132.3050  133.3959  141.1409
  11  1  -22.2534  -21.4274  -20.1147  -18.4471  -15.3893  -13.1765  -10.7266  -10.3620   -9.6553   -9.4400
          -9.0029   -8.4240   -8.0531   -8.0213   -7.0516   -6.8969   -6.4781   -0.6348    1.6197    2.7161
    2.8096    4.2505    4.2625    4.6396    5.4826    5.6081    5.9271    6.6267    8.1122    8.7386
    9.3095    9.7183   10.3931   10.6109   10.9380   11.3460   12.0554   12.1343   12.6320   12.6916
   13.0123   13.5480   14.2110   14.8790   17.6653   18.1774   20.3048   20.4048   20.5340   20.8256
   21.1327   21.8619   22.6229   22.9197   23.2583   23.4136   25.0689   25.3657   25.5551   26.0553
   29.0237   31.6559   32.6599   34.6329   34.8147   34.8496   34.9766   35.9680   36.8374   37.4021
   39.0978   41.1826   42.4253   42.5018   44.2433   44.6548   44.7812   45.8666   46.6446   48.2473
   49.6674   49.9166   51.8907   51.9533   53.5061   53.7668   55.8612   56.1869   58.3596   58.4837
   58.8553   59.7690   60.5542   60.9647   66.2081   68.7314   70.6878   72.0241   72.2889   73.9585
   76.3100   79.8900   79.9679   80.3826   89.6598   90.4111   93.7105   97.5795  103.7639  113.0133
  117.7752  132.4340  133.1561  141.3995
  12  1  -22.2447  -21.4186  -20.1059  -18.4388  -15.3818  -13.1705  -10.7247  -10.3511   -9.6941   -9.4292
          -9.0439   -8.4248   -8.0600   -8.0425   -7.0874   -6.9075   -6.4673   -0.6387    1.6134    2.7268
    2.8152    4.2496    4.3039    4.6873    5.5155    5.6378    5.9382    6.6032    8.0856    8.7482
    9.3193    9.7641   10.3098   10.6162   10.9326   11.3382   12.0387   12.2150   12.6341   12.6370
   13.0031   13.5069   14.1950   14.9452   17.6716   18.1349   20.3043   20.3059   20.5311   20.8877
   21.0985   21.8256   22.7167   22.9084   23.1705   23.3975   25.0086   25.4060   25.5114   26.0089
   28.8926   31.5702   32.8834   34.6662   34.7984   34.9863   35.0076   35.9280   36.8881   37.3386
   39.2141   41.1968   42.2218   42.4536   44.2247   44.5537   44.8379   45.9154   46.6071   48.1669
   49.7306   49.8932   51.7824   52.0689   53.5023   53.6408   55.8615   56.1250   58.3199   58.5759
   59.0466   59.9204   60.5722   61.0945   65.9641   68.8557   70.7418   72.0006   72.3669   74.0956
   76.6908   80.0937   80.1629   80.4743   89.7977   90.5327   93.8527   97.7139  103.2975  113.2858
  117.3409  132.5684  132.9047  141.6710
  13  1  -22.2352  -21.4089  -20.0964  -18.4297  -15.3736  -13.1640  -10.7227  -10.3393   -9.7361   -9.4175
          -9.0881   -8.4262   -8.1019   -8.0308   -7.1263   -6.9191   -6.4554   -0.6431    1.6064    2.7379
    2.8212    4.2354    4.3620    4.7388    5.5507    5.6704    5.9504    6.5775    8.0602    8.7588
    9.3300    9.8115   10.2262   10.6229   10.9268   11.3295   12.0182   12.2946   12.5839   12.6366
   12.9932   13.4625   14.1775   15.0133   17.6785   18.0927   20.2086   20.3033   20.5278   20.9513
   21.0619   21.7862   22.8064   22.8963   23.0832   23.3805   24.9454   25.4416   25.4661   25.9596
   28.7660   31.4854   33.1071   34.6964   34.7527   35.0010   35.1944   35.8827   36.9436   37.2720
   39.3342   41.2125   42.0104   42.4075   44.2097   44.4590   44.8990   45.9655   46.5735   48.0831
   49.7888   49.8709   51.6648   52.1922   53.4919   53.5063   55.8498   56.0570   58.2623   58.6899
   59.2465   60.0768   60.5979   61.2332   65.6993   68.9885   70.7998   71.9800   72.4567   74.2315
   77.0868   80.1904   80.4862   80.6340   89.9499   90.6663   94.0041   97.8600  102.8284  113.5617
  116.8793  132.6389  132.7104  141.9541
  14  1  -22.2249  -21.3983  -20.0860  -18.4199  -15.3647  -13.1569  -10.7207  -10.3264   -9.7813   -9.4047
          -9.1354   -8.4280   -8.1469   -8.0182   -7.1680   -6.9319   -6.4424   -0.6479    1.5986    2.7493
    2.8276    4.2198    4.4247    4.7938    5.5877    5.7059    5.9637    6.5494    8.0366    8.7702
    9.3415    9.8601   10.1431   10.6306   10.9204   11.3202   11.9932   12.3732   12.5335   12.6394
   12.9829   13.4149   14.1586   15.0829   17.6857   18.0511   20.1130   20.3015   20.5240   21.0156
   21.0232   21.7438   22.8834   22.8850   23.0038   23.3625   24.8798   25.4194   25.4717   25.9076
   28.6436   31.4018   33.3296   34.7033   34.7223   35.0211   35.3819   35.8333   37.0040   37.2017
   39.4574   41.2297   41.7937   42.3646   44.1995   44.3724   44.9642   46.0161   46.5450   47.9968
   49.8045   49.8870   51.5384   52.3220   53.3644   53.4741   55.8261   55.9841   58.1942   58.8246
   59.4444   60.2375   60.6313   61.3799   65.4142   69.1294   70.8611   71.9622   72.5577   74.3635
   77.4891   80.2721   80.8423   80.8787   90.1169   90.8121   94.1638   98.0173  102.3608  113.8418
  116.3933  132.3688  132.8491  142.2484
  15  1  -22.2137  -21.3869  -20.0748  -18.4092  -15.3551  -13.1493  -10.7188  -10.3125   -9.8293   -9.3910
          -9.1856   -8.4305   -8.1947   -8.0045   -7.2123   -6.9458   -6.4285   -0.6533    1.5901    2.7607
    2.8347    4.2028    4.4918    4.8520    5.6262    5.7446    5.9783    6.5191    8.0154    8.7826
    9.3539    9.9095   10.0608   10.6391   10.9136   11.3100   11.9628   12.4499   12.4875   12.6425
   12.9721   13.3644   14.1383   15.1538   17.6934   18.0106   20.0194   20.2987   20.5198   20.9828
   21.0801   21.6986   22.8698   22.8799   23.0047   23.3436   24.8123   25.3719   25.4957   25.8533
   28.5254   31.3195   33.5493   34.6511   34.7435   35.0465   35.5608   35.7868   37.0692   37.1275
   39.5828   41.2485   41.5740   42.3266   44.1952   44.2950   45.0334   46.0666   46.5231   47.9089
   49.7720   49.9472   51.4033   52.4567   53.2167   53.4482   55.7908   55.9078   58.1183   58.9789
   59.6355   60.4017   60.6716   61.5339   65.1096   69.2775   70.9254   71.9469   72.6689   74.4892
   77.8882   80.3578   81.1069   81.3260   90.2996   90.9704   94.3307   98.1846  101.8994  114.1272
  115.8864  132.0870  132.9910  142.5535
  16  1  -22.2016  -21.3747  -20.0627  -18.3978  -15.3448  -13.1412  -10.7170  -10.2975   -9.8801   -9.3762
          -9.2386   -8.4336   -8.2454   -7.9898   -7.2592   -6.9609   -6.4135   -0.6592    1.5807    2.7718
    2.8426    4.1843    4.5633    4.9130    5.6659    5.7862    5.9944    6.4865    7.9970    8.7959
    9.3671    9.9593    9.9798   10.6483   10.9062   11.2991   11.9265   12.4434   12.5279   12.6460
   12.9610   13.3113   14.1167   15.2256   17.7012   17.9718   19.9280   20.2944   20.5150   20.9413
   21.1444   21.6507   22.7997   22.8554   23.0776   23.3241   24.7434   25.3240   25.5131   25.7971
   28.4113   31.2388   33.7636   34.5977   34.7601   35.0761   35.6543   35.8176   37.0489   37.1392
   39.7094   41.2688   41.3534   42.2952   44.1979   44.2278   45.1061   46.1167   46.5090   47.8207
   49.7275   50.0151   51.2599   52.5921   53.0678   53.4138   55.7441   55.8298   58.0359   59.1517
   59.8183   60.5681   60.7175   61.6947   64.7862   69.4323   70.9922   71.9341   72.7889   74.6062
   78.2757   80.4588   81.4003   81.8549   90.4986   91.1415   94.5040   98.3600  101.4495  114.4192
  115.3620  131.7958  133.1329  142.8694
  17  1  -22.1888  -21.3616  -20.0499  -18.3855  -15.3338  -13.1326  -10.7155  -10.2816   -9.9335   -9.3604
          -9.2944   -8.4375   -8.2987   -7.9742   -7.3086   -6.9771   -6.3975   -0.6656    1.5705    2.7825
    2.8513    4.1643    4.6390    4.9764    5.7063    5.8305    6.0123    6.4515    7.9820    8.8101
    9.3812    9.8992   10.0104   10.6581   10.8983   11.2874   11.8842   12.4063   12.6026   12.6498
   12.9497   13.2557   14.0939   15.2981   17.7090   17.9350   19.8388   20.2882   20.5095   20.8993
   21.2078   21.6001   22.7128   22.8403   23.1539   23.3039   24.6735   25.2759   25.5233   25.7393
   28.3013   31.1598   33.9678   34.5464   34.7732   35.1085   35.6069   35.9792   36.9657   37.2139
   39.8363   41.1340   41.2908   42.2722   44.1716   44.2087   45.1821   46.1664   46.5037   47.7329
   49.6764   50.0857   51.1083   52.7033   52.9425   53.3707   55.6865   55.7516   57.9477   59.3415
   59.9932   60.7302   60.7720   61.8616   64.4448   69.5931   71.0613   71.9235   72.9162   74.7125
   78.6461   80.5806   81.7250   82.4629   90.7149   91.3259   94.6825   98.5394  101.0184  114.7169
  114.8265  131.4957  133.2735  143.1963
  18  1  -22.1750  -21.3476  -20.0362  -18.3725  -15.3222  -13.1235  -10.7143  -10.2646   -9.9893   -9.3528
          -9.3435   -8.4421   -8.3545   -7.9575   -7.3601   -6.9945   -6.3805   -0.6727    1.5595    2.7924
    2.8611    4.1428    4.7187    5.0416    5.7476    5.8768    6.0329    6.4143    7.9709    8.8253
    9.3961    9.8206   10.0612   10.6686   10.8899   11.2748   11.8359   12.3740   12.6540   12.6759
   12.9382   13.1981   14.0700   15.3712   17.7164   17.9009   19.7521   20.2794   20.5034   20.8576
   21.2702   21.5473   22.6253   22.8247   23.2274   23.2831   24.6031   25.2279   25.5256   25.6806
   28.1952   31.0827   34.1490   34.5088   34.7835   35.1420   35.5313   36.1564   36.8780   37.2934
   39.9624   40.9178   41.3143   42.2596   44.1268   44.2285   45.2609   46.2156   46.5083   47.6469
   49.6198   50.1579   50.9490   52.6632   52.9682   53.3191   55.6192   55.6739   57.8544   59.5470
   60.1618   60.8064   60.9130   62.0339   64.0861   69.7592   71.1324   71.9147   73.0491   74.8063
   78.9973   80.7261   82.0803   83.1478   90.9496   91.5243   94.8654   98.7143  100.6182  114.2740
  115.0318  131.1866  133.4119  143.5347
  19  1  -22.1604  -21.3328  -20.0216  -18.3587  -15.3099  -13.1140  -10.7137  -10.2466  -10.0471   -9.4136
          -9.3257   -8.4477   -8.4126   -7.9398   -7.4137   -7.0131   -6.3624   -0.6803    1.5475    2.8013
    2.8721    4.1197    4.8023    5.1079    5.7898    5.9234    6.0575    6.3747    7.9642    8.8413
    9.4118    9.7437   10.1120   10.6796   10.8811   11.2615   11.7822   12.3465   12.6585   12.7476
   12.9266   13.1388   14.0451   15.4447   17.7226   17.8703   19.6680   20.2671   20.4964   20.8173
   21.3310   21.4922   22.5383   22.8085   23.2620   23.2969   24.5325   25.1805   25.5190   25.6220
   28.0930   31.0075   34.2601   34.5301   34.7920   35.1750   35.4448   36.3293   36.7858   37.3776
   40.0863   40.7068   41.3396   42.2592   44.0940   44.2583   45.3422   46.2645   46.5236   47.5638
   49.5583   50.2318   50.7821   52.5108   53.1060   53.2593   55.5444   55.5960   57.7568   59.7668
   60.3264   60.8512   61.0823   62.2110   63.7111   69.9302   71.2054   71.9076   73.1859   74.8865
   79.3301   80.8965   82.4663   83.9029   91.2038   91.7372   95.0514   98.8628  100.2740  113.7194
  115.3553  130.8685  133.5472  143.8852
  20  1  -22.1450  -21.3172  -20.0063  -18.3441  -15.2969  -13.1039  -10.7139  -10.2276  -10.1068   -9.4768
          -9.3069   -8.4730   -8.4541   -7.9212   -7.4691   -7.0329   -6.3433   -0.6886    1.5345    2.8093
    2.8842    4.0950    4.8896    5.1744    5.8334    5.9677    6.0886    6.3328    7.9622    8.8582
    9.4280    9.6691   10.1627   10.6912   10.8717   11.2474   11.7241   12.3230   12.6635   12.8174
   12.9147   13.0782   14.0192   15.5183   17.7261   17.8449   19.5864   20.2505   20.4887   20.7795
   21.3901   21.4353   22.4523   22.7918   23.2405   23.3621   24.4621   25.1336   25.5005   25.5665
   27.9947   30.9345   34.2590   34.6508   34.7992   35.2060   35.3496   36.4928   36.6897   37.4664
   40.2060   40.5037   41.3667   42.2733   44.0735   44.2989   45.4253   46.3135   46.5502   47.4847
   49.4921   50.3073   50.6081   52.3375   53.1920   53.2647   55.4646   55.5172   57.6555   59.9992
   60.4891   60.8891   61.2523   62.3925   63.3206   70.1053   71.2802   71.9018   73.3249   74.9526
   79.6468   81.0918   82.8829   84.7184   91.4783   91.9655   95.2394   98.9319  100.0430  113.1629
  115.6940  130.5414  133.6787  144.2486
  21  1  -22.1287  -21.3007  -19.9901  -18.3287  -15.2833  -13.0935  -10.7153  -10.2075  -10.1678   -9.5423
          -9.2870   -8.5353   -8.4618   -7.9015   -7.5261   -7.0539   -6.3232   -0.6976    1.5205    2.8164
    2.8974    4.0686    4.9805    5.2400    5.8790    6.0066    6.1289    6.2886    7.9654    8.8760
    9.4442    9.5975   10.2130   10.7033   10.8618   11.2325   11.6623   12.3030   12.6687   12.8850
   12.9022   13.0174   13.9928   15.5921   17.7245   17.8271   19.5076   20.2283   20.4801   20.7453
   21.3766   21.4470   22.3675   22.7747   23.2187   23.4226   24.3922   25.0877   25.4635   25.5207
   27.9002   30.8636   34.2093   34.8048   34.8056   35.2340   35.2466   36.5898   36.6440   37.5599
   40.2822   40.3487   41.3958   42.3037   44.0656   44.3508   45.5098   46.3629   46.5885   47.4110
   49.4219   50.3845   50.4271   52.1564   53.1182   53.4314   55.3802   55.4387   57.5511   60.2429
   60.6502   60.9210   61.4216   62.5778   62.9157   70.2841   71.3568   71.8971   73.4646   75.0048
   79.9498   81.3112   83.3300   85.5825   91.7744   92.2105   95.4281   98.8498  100.0007  112.6093
  116.0503  130.2053  133.8058  144.6258
  22  1  -22.1116  -21.2834  -19.9731  -18.3125  -15.2691  -13.0826  -10.7183  -10.2295  -10.1865   -9.6099
          -9.2662   -8.5995   -8.4707   -7.8809   -7.5844   -7.0761   -6.3021   -0.7073    1.5055    2.8226
    2.9114    4.0406    5.0747    5.3035    5.9276    6.0391    6.1792    6.2421    7.9741    8.8945
    9.4574    9.5325   10.2626   10.7159   10.8514   11.2167   11.5978   12.2858   12.6743   12.8870
   12.9502   12.9588   13.9659   15.6659   17.7158   17.8189   19.4315   20.1999   20.4709   20.7157
   21.3165   21.5016   22.2840   22.7572   23.1967   23.4780   24.3230   25.0427   25.4094   25.4835
   27.8095   30.7951   34.1458   34.8111   34.9548   35.1362   35.2581   36.4882   36.7783   37.6580
   40.1157   40.4417   41.4269   42.3524   44.0701   44.4147   45.5947   46.4134   46.6386   47.3441
   49.3481   50.2397   50.4635   51.9704   53.0390   53.6033   55.2903   55.3625   57.4443   60.4961
   60.8012   60.9561   61.5892   62.4973   62.7664   70.4660   71.4352   71.8932   73.6035   75.0435
   80.2412   81.5534   83.8075   86.4819   92.0927   92.4734   95.6161   98.6407  100.1275  112.0636
  116.4269  129.8600  133.9282  145.0178
  23  1  -22.0935  -21.2652  -19.9552  -18.2956  -15.2542  -13.0713  -10.7238  -10.2912  -10.1644   -9.6795
          -9.2444   -8.6655   -8.4811   -7.8593   -7.6438   -7.0995   -6.2800   -0.7178    1.4894    2.8283
    2.9261    4.0108    5.1719    5.3634    5.9801    6.0669    6.1932    6.2373    7.9885    8.9138
    9.4407    9.5012   10.3114   10.7290   10.8404   11.2000   11.5316   12.2706   12.6801   12.8595
   12.9129   13.0125   13.9391   15.7395   17.7009   17.8195   19.3583   20.1645   20.4611   20.6912
   21.2552   21.5536   22.2019   22.7394   23.1746   23.5283   24.2548   24.9989   25.3482   25.4450
   27.7225   30.7291   34.0768   34.8159   35.0165   35.0918   35.2774   36.3859   36.8933   37.7606
   39.9443   40.5458   41.4604   42.4214   44.0870   44.4908   45.6791   46.4656   46.7004   47.2855
   49.2712   50.0461   50.5445   51.7808   52.9558   53.7795   55.1945   55.2903   57.3360   60.7563
   60.8903   61.0478   61.7549   62.0663   62.9579   70.6505   71.5154   71.8899   73.7404   75.0697
   80.5222   81.8163   84.3144   87.4020   92.4339   92.7560   95.8016   98.3899  100.3438  111.5314
  116.8267  129.5054  134.0454  145.4256
  24  1  -22.0747  -21.2462  -19.9366  -18.2778  -15.2388  -13.0597  -10.7329  -10.3516  -10.1413   -9.7509
          -9.2215   -8.7329   -8.4933   -7.8367   -7.7037   -7.1241   -6.2569   -0.7291    1.4722    2.8334
    2.9413    3.9792    5.2720    5.4185    6.0372    6.0926    6.1421    6.3007    8.0089    8.9336
    9.3854    9.5131   10.3590   10.7426   10.8289   11.1826   11.4645   12.2572   12.6857   12.8093
   12.8907   13.0713   13.9129   15.8129   17.6827   17.8257   19.2879   20.1222   20.4508   20.6720
   21.1930   21.6028   22.1213   22.7213   23.1523   23.5733   24.1879   24.9562   25.2844   25.4009
   27.6392   30.6656   34.0045   34.8198   34.8922   35.2055   35.2916   36.2856   36.9856   37.8676
   39.7866   40.6432   41.4965   42.5120   44.1154   44.5794   45.7620   46.5204   46.7733   47.2369
   49.1918   49.8468   50.6276   51.5885   52.8705   53.9592   55.0934   55.2224   57.2267   60.8998
   61.0272   61.2086   61.6240   61.9186   63.1518   70.8371   71.5973   71.8868   73.8744   75.0847
   80.7932   82.0978   84.8501   88.3265   92.7981   93.0600   95.9829   98.1478  100.6058  111.0191
  117.2526  129.1414  134.1573  145.8501
  25  1  -22.0549  -21.2263  -19.9171  -18.2593  -15.2227  -13.0477  -10.7475  -10.4088  -10.1172   -9.8241
          -9.1977   -8.8017   -8.5075   -7.8131   -7.7639   -7.1499   -6.2327   -0.7412    1.4538    2.8382
    2.9568    3.9459    5.3744    5.4674    6.0887    6.0961    6.1217    6.3676    8.0354    8.9537
    9.3276    9.5325   10.4049   10.7565   10.8168   11.1642   11.3975   12.2449   12.6892   12.7520
   12.8790   13.1258   13.8879   15.8860   17.6638   17.8350   19.2205   20.0734   20.4401   20.6576
   21.1302   21.6490   22.0424   22.7029   23.1298   23.6127   24.1224   24.9149   25.2193   25.3501
   27.5595   30.6047   33.9301   34.7605   34.8226   35.2938   35.3000   36.1914   37.0521   37.9791
   39.6452   40.7322   41.5353   42.6254   44.1545   44.6805   45.8418   46.5788   46.8565   47.2003
   49.1108   49.6422   50.7130   51.3941   52.7849   54.1421   54.9881   55.1588   57.1173   60.8897
   61.1713   61.2964   61.3896   62.0810   63.3477   71.0254   71.6810   71.8838   74.0044   75.0898
   81.0535   82.3955   85.4131   89.2372   93.1849   93.3877   96.1578   97.9400  100.8965  110.5335
  117.7076  128.7679  134.2636  146.2925
  26  1  -22.0344  -21.2056  -19.8968  -18.2400  -15.2061  -13.0355  -10.7700  -10.4605  -10.0921   -9.8989
          -9.1729   -8.8716   -8.5243   -7.8238   -7.7886   -7.1769   -6.2076   -0.7542    1.4341    2.8428
    2.9726    3.9107    5.4784    5.5096    6.0331    6.1336    6.1790    6.4366    8.0679    8.9734
    9.2741    9.5540   10.4486   10.7709   10.8041   11.1450   11.3316   12.2335   12.6713   12.7146
   12.8709   13.1751   13.8653   15.9587   17.6454   17.8462   19.1560   20.0189   20.4287   20.6476
   21.0671   21.6921   21.9651   22.6844   23.1073   23.6466   24.0586   24.8749   25.1535   25.2922
   27.4835   30.5467   33.8537   34.6224   34.8240   35.3025   35.3497   36.1091   37.0905   38.0948
   39.5216   40.8118   41.5772   42.7619   44.2027   44.7940   45.9171   46.6420   46.9485   47.1777
   49.0288   49.4329   50.8006   51.1981   52.7010   54.3279   54.8797   55.0992   57.0084   60.7093
   60.8651   61.5656   61.5808   62.2440   63.5453   71.2150   71.7663   71.8806   74.1298   75.0864
   81.3022   82.7070   86.0020   90.1136   93.5926   93.7411   96.3238   97.7849  101.2091  110.0824
  118.1944  128.3848  134.3645  146.7537
  27  1  -22.0129  -21.1840  -19.8757  -18.2199  -15.1889  -13.0229  -10.8028  -10.5041  -10.0660   -9.9752
          -9.1471   -8.9423   -8.5440   -7.8829   -7.7630   -7.2051   -6.1815   -0.7681    1.4132    2.8473
    2.9884    3.8736    5.5434    5.5847    5.9752    6.1598    6.2555    6.5069    8.1063    8.9917
    9.2271    9.5769   10.4892   10.7856   10.7909   11.1250   11.2680   12.2228   12.6163   12.7146
   12.8648   13.2178   13.8464   16.0310   17.6280   17.8585   19.0946   19.9596   20.4164   20.6413
   21.0040   21.7319   21.8895   22.6657   23.0847   23.6747   23.9966   24.8362   25.0873   25.2275
   27.4111   30.4914   33.7756   34.4783   34.8237   35.2989   35.3670   36.0453   37.0995   38.2148
   39.4165   40.8815   41.6223   42.9213   44.2581   44.9196   45.9860   46.7112   47.0478   47.1711
   48.9469   49.2193   50.8906   51.0012   52.6211   54.5161   54.7693   55.0435   56.9007   60.2392
   60.8299   61.7774   61.8306   62.4118   63.7441   71.4053   71.8522   71.8779   74.2501   75.0758
   81.5375   83.0300   86.6152   90.9331   94.0176   94.1222   96.4782   97.7006  101.5402  109.6744
  118.7157  127.9918  134.4598  147.2346
  28  1  -21.9906  -21.1616  -19.8537  -18.1990  -15.1712  -13.0102  -10.8474  -10.5383  -10.0528  -10.0388
          -9.1202   -9.0138   -8.5673   -7.9404   -7.7365   -7.2345   -6.1543   -0.7829    1.3910    2.8518
    3.0042    3.8347    5.5712    5.6898    5.9151    6.1866    6.3400    6.5776    8.1505    9.0062
    9.1900    9.6009   10.5254   10.7770   10.8005   11.1040   11.2084   12.2125   12.5562   12.7209
   12.8605   13.2521   13.8327   16.1026   17.6120   17.8716   19.0362   19.8966   20.4031   20.6382
   20.9414   21.7679   21.8160   22.6469   23.0619   23.6970   23.9365   24.7988   25.0207   25.1560
   27.3422   30.4391   33.6956   34.3288   34.8212   35.2891   35.3430   36.0034   37.0794   38.3389
   39.3293   40.9411   41.6709   43.1024   44.3184   45.0570   46.0473   46.7878   47.1520   47.1820
   48.8665   49.0022   50.8038   50.9830   52.5475   54.6577   54.7067   54.9917   56.7949   59.7622
   60.7861   61.9816   62.0784   62.5925   63.9440   71.5962   71.8713   71.9428   74.3649   75.0592
   81.7573   83.3620   87.2506   91.6721   94.4523   94.5335   96.6185   97.7079  101.8881  109.3191
  119.2735  127.5890  134.5497  147.7360
  29  1  -21.9674  -21.1383  -19.8310  -18.1773  -15.1530  -12.9973  -10.9031  -10.5638  -10.1315  -10.0107
          -9.0925   -9.0855   -8.5948   -7.9956   -7.7091   -7.2651   -6.1262   -0.7988    1.3674    2.8564
    3.0200    3.7938    5.5922    5.7931    5.8528    6.2169    6.4310    6.6482    8.2001    9.0129
    9.1676    9.6259   10.5553   10.7624   10.8157   11.0822   11.1550   12.2025   12.4966   12.7283
   12.8580   13.2764   13.8262   16.1737   17.5974   17.8850   18.9810   19.8307   20.3883   20.6376
   20.8795   21.7425   21.8021   22.6281   23.0389   23.7136   23.8787   24.7628   24.9539   25.0781
   27.2768   30.3897   33.6134   34.1743   34.8163   35.2731   35.2830   35.9799   37.0318   38.4670
   39.2580   40.9907   41.7232   43.3030   44.3808   45.2056   46.0999   46.8731   47.2112   47.2582
   48.7826   48.7892   50.6064   51.0775   52.4829   54.5460   54.8991   54.9437   56.6916   59.2796
   60.7351   62.1912   62.2975   62.7977   64.1444   71.7871   71.8659   72.0326   74.4740   75.0378
   81.9593   83.7008   87.9059   92.3099   94.8860   94.9761   96.7424   97.8271  102.2516  109.0266
  119.8694  127.1763  134.6343  148.2586
  30  1  -21.9433  -21.1142  -19.8074  -18.1549  -15.1343  -12.9843  -10.9676  -10.5829  -10.2113   -9.9816
          -9.1574   -9.0637   -8.6273   -8.0478   -7.6807   -7.2969   -6.0970   -0.8156    1.3424    2.8611
    3.0356    3.7510    5.6076    5.7883    5.8909    6.2540    6.5272    6.7182    8.2547    9.0088
    9.1635    9.6519   10.5763   10.7471   10.8311   11.0596   11.1107   12.1925   12.4386   12.7361
   12.8574   13.2891   13.8283   16.2439   17.5843   17.8986   18.9289   19.7626   20.3719   20.6391
   20.8188   21.6722   21.8312   22.6092   23.0158   23.7242   23.8230   24.7281   24.8868   24.9942
   27.2149   30.3433   33.5288   34.0153   34.8085   35.1975   35.2510   35.9661   36.9597   38.5990
   39.1999   41.0304   41.7792   43.5206   44.4425   45.3648   46.1439   46.9682   47.2582   47.3632
   48.5617   48.7173   50.4096   51.1739   52.4297   54.4353   54.8996   55.0933   56.5914   58.7926
   60.6780   62.4055   62.4795   63.0344   64.3453   71.8592   71.9777   72.1238   74.5772   75.0126
   82.1414   84.0444   88.5778   92.8330   95.3179   95.4408   96.8495   98.0711  102.6297  108.8075
  120.5039  126.7535  134.7137  148.8028
  31  1  -21.9184  -21.0893  -19.7830  -18.1317  -15.1151  -12.9713  -11.0386  -10.5982  -10.2920   -9.9515
          -9.2289   -9.0340   -8.6652   -8.0963   -7.6513   -7.3298   -6.0669   -0.8336    1.3160    2.8661
    3.0510    3.7062    5.6180    5.7217    5.9776    6.3031    6.6273    6.7874    8.3139    8.9973
    9.1754    9.6790   10.5852   10.7310   10.8467   11.0363   11.0792   12.1826   12.3829   12.7443
   12.8587   13.2897   13.8395   16.3134   17.5726   17.9123   18.8800   19.6930   20.3534   20.6424
   20.7598   21.6033   21.8569   22.5902   22.9924   23.7290   23.7698   24.6947   24.8189   24.9052
   27.1563   30.3001   33.4411   33.8525   34.7975   35.0967   35.2232   35.9541   36.8669   38.7347
   39.1516   41.0609   41.8390   43.7515   44.5009   45.5339   46.1801   47.0740   47.3207   47.4627
   48.3418   48.6538   50.2140   51.2716   52.3904   54.3269   54.8596   55.2885   56.4950   58.3028
   60.6161   62.6217   62.6295   63.2982   64.5462   71.8511   72.1677   72.2160   74.6745   74.9845
   82.3012   84.3907   89.2616   93.2395   95.7575   95.9120   96.9443   98.4341  103.0211  108.6717
  121.1765  126.3206  134.7880  149.3690
  32  1  -21.8926  -21.0635  -19.7577  -18.1077  -15.0954  -12.9583  -11.1143  -10.6116  -10.3734   -9.9203
          -9.2998   -9.0032   -8.7090   -8.1406   -7.6210   -7.3640   -6.0358   -0.8527    1.2881    2.8714
    3.0661    3.6595    5.6243    5.6530    6.0470    6.3701    6.7292    6.8565    8.3770    8.9852
    9.1972    9.7070   10.5798   10.7140   10.8623   11.0123   11.0630   12.1726   12.3298   12.7526
   12.8620   13.2791   13.8592   16.3819   17.5624   17.9257   18.8344   19.6225   20.3325   20.6470
   20.7030   21.5361   21.8789   22.5712   22.9687   23.7191   23.7279   24.6625   24.7491   24.8127
   27.1012   30.2599   33.3497   33.6863   34.7829   34.9878   35.1898   35.9391   36.7572   38.8740
   39.1099   41.0826   41.9025   43.9916   44.5536   45.7120   46.2095   47.1906   47.3932   47.5520
   48.1279   48.6028   50.0200   51.3699   52.3675   54.2222   54.8237   55.4840   56.4027   57.8122
   60.5507   62.7488   62.8461   63.5798   64.7469   71.8413   72.3091   72.3567   74.7660   74.9543
   82.4370   84.7379   89.9497   93.5406   96.2175   96.3657   97.0478   98.8907  103.4243  108.6280
  121.8854  125.8778  134.8576  149.9573
  33  1  -21.8660  -21.0368  -19.7317  -18.0829  -15.0754  -12.9455  -11.1933  -10.6248  -10.4552   -9.8882
          -9.3695   -8.9716   -8.7588   -8.1804   -7.5898   -7.3993   -6.0037   -0.8729    1.2586    2.8770
    3.0810    3.6107    5.5823    5.6273    6.0969    6.4566    6.8287    6.9286    8.4434    8.9772
    9.2250    9.7362   10.5600   10.6961   10.8779   10.9877   11.0628   12.1625   12.2797   12.7611
   12.8673   13.2587   13.8857   16.4494   17.5536   17.9388   18.7922   19.5517   20.3090   20.6436
   20.6579   21.4704   21.8972   22.5523   22.9447   23.6710   23.7210   24.6315   24.6724   24.7219
   27.0494   30.2228   33.2539   33.5174   34.7643   34.8758   35.1512   35.9188   36.6341   39.0167
   39.0718   41.0961   41.9696   44.2361   44.5985   45.8983   46.2331   47.3180   47.4604   47.6263
   47.9350   48.5690   49.8283   51.4676   52.3630   54.1230   54.7925   55.6778   56.3152   57.3241
   60.4829   62.8516   63.0703   63.8714   64.9472   71.8297   72.4028   72.5445   74.8513   74.9232
   82.5473   85.0846   90.6303   93.7581   96.6888   96.7465   97.2412   99.4057  103.8372  108.6826
  122.6271  125.4255  134.9224  150.5673
  34  1  -21.8384  -21.0093  -19.7048  -18.0573  -15.0550  -12.9329  -11.2748  -10.6388  -10.5374   -9.8551
          -9.4376   -8.9389   -8.8146   -8.2160   -7.5576   -7.4357   -5.9706   -0.8943    1.2277    2.8831
    3.0954    3.5600    5.5096    5.6276    6.1305    6.5589    6.9169    7.0116    8.5123    8.9761
    9.2568    9.7665   10.5286   10.6772   10.8934   10.9627   11.0762   12.1522   12.2331   12.7700
   12.8746   13.2305   13.9173   16.5156   17.5461   17.9512   18.7536   19.4810   20.2826   20.5950
   20.6620   21.4062   21.9118   22.5334   22.9203   23.6256   23.7083   24.5800   24.6016   24.6423
   27.0009   30.1889   33.1526   33.3467   34.7416   34.7639   35.1078   35.8924   36.5007   39.0352
   39.1626   41.1018   42.0400   44.4791   44.6348   46.0915   46.2508   47.4551   47.4660   47.6818
   47.8202   48.5571   49.6395   51.5630   52.3785   54.0314   54.7664   55.8622   56.2329   56.8470
   60.4137   62.9388   63.2963   64.1686   65.1468   71.8163   72.4966   72.7308   74.8883   74.9342
   82.6312   85.4293   91.2842   93.9168   96.8929   97.2527   97.6255   99.9475  104.2575  108.8384
  123.3948  124.9661  134.9827  151.1986
  35  1  -21.8101  -20.9810  -19.6772  -18.0310  -15.0343  -12.9207  -11.3582  -10.6549  -10.6196   -9.8210
          -9.5036   -8.9053   -8.8759   -8.2475   -7.5245   -7.4734   -5.9366   -0.9170    1.1951    2.8897
    3.1095    3.5073    5.4349    5.6259    6.1524    6.6712    6.9876    7.1113    8.5829    8.9833
    9.2919    9.7980   10.4899   10.6571   10.9087   10.9376   11.0997   12.1416   12.1900   12.7792
   12.8837   13.1962   13.9523   16.5806   17.5399   17.9627   18.7186   19.4108   20.2530   20.5464
   20.6701   21.3436   21.9225   22.5144   22.8955   23.5829   23.6897   24.4740   24.5722   24.5729
   26.9556   30.1581   33.0440   33.1758   34.6547   34.7145   35.0600   35.8600   36.3593   38.9985
   39.3115   41.1004   42.1134   44.6575   44.7183   46.2585   46.2921   47.3465   47.5997   47.7190
   47.8497   48.5700   49.4545   51.6539   52.4147   53.9503   54.7461   55.9831   56.1563   56.4367
   60.3442   63.0125   63.5232   64.4683   65.3455   71.8007   72.5903   72.9153   74.8564   75.0085
   82.6883   85.7711   91.8827   94.0389   96.9984   97.8241   98.1217  100.4931  104.6823  109.0943
  124.1452  124.5373  135.0385  151.8503
  36  1  -21.7808  -20.9518  -19.6487  -18.0039  -15.0134  -12.9090  -11.4430  -10.7026  -10.6728   -9.7860
          -9.5667   -8.9421   -8.8707   -8.2755   -7.5121   -7.4904   -5.9016   -0.9409    1.1609    2.8968
    3.1232    3.4526    5.3583    5.6226    6.1661    6.7886    7.0467    7.2219    8.6539    8.9994
    9.3299    9.8310   10.4478   10.6357   10.9127   10.9237   11.1303   12.1307   12.1509   12.7890
   12.8945   13.1573   13.9894   16.6441   17.5348   17.9730   18.6874   19.3417   20.2202   20.5010
   20.6792   21.2824   21.9295   22.4956   22.8704   23.5428   23.6654   24.3606   24.5058   24.5452
   26.9135   30.1304   32.9240   33.0088   34.5498   34.6828   35.0082   35.8220   36.2120   38.9605
   39.4632   41.0921   42.1894   44.6750   44.9378   46.2539   46.4945   47.1789   47.7230   47.7692
   47.9536   48.6073   49.2742   51.7374   52.4712   53.8830   54.7323   55.7450   56.0856   56.3901
   60.2754   63.0740   63.7501   64.7688   65.5431   71.7830   72.6834   73.0976   74.8239   75.0790
   82.7188   86.1090   92.3869   94.1406   97.1250   98.4339   98.6773  101.0285  105.1090  109.4454
  123.9724  125.0385  135.0900  152.5210
  37  1  -21.7507  -20.9218  -19.6194  -17.9760  -14.9922  -12.8980  -11.5289  -10.7843  -10.6952   -9.7499
          -9.6264   -9.0125   -8.8352   -8.3007   -7.5520   -7.4555   -5.8656   -0.9661    1.1250    2.9046
    3.1364    3.3959    5.2798    5.6183    6.1734    6.9062    7.1023    7.3378    8.7242    9.0246
    9.3709    9.8656   10.4055   10.6129   10.8881   10.9382   11.1654   12.1158   12.1196   12.7995
   12.9069   13.1150   14.0275   16.7060   17.5307   17.9819   18.6603   19.2740   20.1845   20.4588
   20.6890   21.2227   21.9326   22.4767   22.8449   23.5055   23.6353   24.2423   24.4412   24.5185
   26.8745   30.1057   32.7820   32.8562   34.4505   34.6465   34.9530   35.7792   36.0601   38.9207
   39.6172   41.0776   42.2674   44.6810   45.1359   46.2206   46.6999   47.0253   47.7458   47.9175
   48.0832   48.6665   49.0996   51.8097   52.5467   53.8337   54.7265   55.2979   56.0212   56.5587
   60.2082   63.1239   63.9764   65.0687   65.7394   71.7629   72.7755   73.2777   74.7919   75.1453
   82.7234   86.4424   92.7551   94.2331   97.3164   99.0787   99.2966  101.5459  105.5352  109.8834
  123.4860  125.8529  135.1371  153.2093
  38  1  -21.7197  -20.8910  -19.5893  -17.9473  -14.9709  -12.8880  -11.6156  -10.8656  -10.7216   -9.7129
          -9.6819   -9.0866   -8.7988   -8.3235   -7.5930   -7.4196   -5.8287   -0.9927    1.0875    2.9130
    3.1492    3.3372    5.1996    5.6133    6.1752    7.0143    7.1650    7.4561    8.7925    9.0586
    9.4152    9.9023   10.3658   10.5886   10.8644   10.9522   11.2036   12.0848   12.1082   12.8109
   12.9208   13.0702   14.0659   16.7660   17.5277   17.9889   18.6375   19.2082   20.1462   20.4194
   20.6994   21.1642   21.9319   22.4578   22.8190   23.4707   23.5994   24.1200   24.3780   24.4928
   26.8387   30.0840   32.6172   32.7191   34.3578   34.6054   34.8948   35.7320   35.9050   38.8787
   39.7734   41.0570   42.3467   44.6774   45.3031   46.1419   46.8932   46.9277   47.7609   48.0778
   48.2264   48.7456   48.9322   51.8665   52.6389   53.8068   54.7299   54.8308   55.9635   56.7555
   60.1435   63.1629   64.2012   65.3670   65.9342   71.7403   72.8661   73.4552   74.7607   75.2078
   82.7033   86.7709   92.9614   94.3232   97.5847   99.7552  100.0013  102.0420  105.9589  110.3980
  122.9818  126.6772  135.1798  153.9131
  39  1  -21.6878  -20.8593  -19.5584  -17.9179  -14.9495  -12.8791  -11.7029  -10.9460  -10.7529   -9.7328
          -9.6749   -9.1638   -8.7614   -8.3445   -7.6351   -7.3828   -5.7909   -1.0207    1.0484    2.9222
    3.1614    3.2766    5.1176    5.6080    6.1719    7.0961    7.2523    7.5753    8.8570    9.1006
    9.4633    9.9416   10.3309   10.5626   10.8417   10.9654   11.2437   12.0580   12.0966   12.8232
   12.9360   13.0235   14.1041   16.8239   17.5255   17.9938   18.6190   19.1446   20.1060   20.3824
   20.7103   21.1071   21.9274   22.4390   22.7929   23.4384   23.5580   23.9944   24.3159   24.4681
   26.8059   30.0651   32.4432   32.5842   34.2722   34.5597   34.8341   35.6804   35.7484   38.8344
   39.9314   41.0307   42.4266   44.6649   45.4319   46.0092   46.8590   47.1109   47.7829   48.2398
   48.3790   48.7743   48.8448   51.9035   52.7444   53.8062   54.3665   54.7447   55.9126   56.9600
   60.0820   63.1912   64.4237   65.6630   66.1272   71.7152   72.9545   73.6298   74.7308   75.2671
   82.6598   87.0942   93.0090   94.4149   97.9112  100.4583  100.8161  102.5166  106.3797  110.9773
  122.4659  127.4977  135.2182  154.6298
  40  1  -21.6551  -20.8268  -19.5267  -17.8877  -14.9281  -12.8716  -11.7905  -11.0252  -10.7897   -9.7784
          -9.6360   -9.2436   -8.7230   -8.3640   -7.6782   -7.3452   -5.7521   -1.0500    1.0075    2.9321
    3.1732    3.2141    5.0338    5.6028    6.1636    7.1493    7.3669    7.6942    8.9162    9.1495
    9.5156    9.9843   10.3025   10.5351   10.8206   10.9777   11.2851   12.0355   12.0848   12.8366
   12.9524   12.9756   14.1417   16.8794   17.5242   17.9964   18.6051   19.0839   20.0643   20.3473
   20.7217   21.0511   21.9192   22.4202   22.7666   23.4085   23.5108   23.8660   24.2550   24.4442
   26.7761   30.0490   32.2666   32.4456   34.1938   34.5093   34.7712   35.5824   35.6336   38.7880
   40.0906   40.9991   42.5060   44.6442   45.5178   45.8335   46.8534   47.3050   47.8149   48.4014
   48.5372   48.6313   48.9658   51.9174   52.8590   53.8345   53.9118   54.7731   55.8687   57.1682
   60.0246   63.2094   64.6432   65.9559   66.3184   71.6874   73.0402   73.8014   74.7024   75.3238
   82.5947   87.4120   92.9249   94.5104   98.2620  101.1807  101.7577  102.9710  106.7980  111.6096
  121.9401  128.3059  135.2522  155.3568
  41  1  -21.6215  -20.7934  -19.4941  -17.8567  -14.9068  -12.8659  -11.8782  -11.1027  -10.8322   -9.8184
          -9.5960   -9.3256   -8.6838   -8.3826   -7.7225   -7.3067   -5.7123   -1.0808    0.9649    2.9427
    3.1496    3.1844    4.9485    5.5980    6.1505    7.1880    7.4952    7.8114    8.9687    9.2040
    9.5731   10.0312   10.2821   10.5060   10.8011   10.9889   11.3274   12.0171   12.0729   12.8512
   12.9271   12.9699   14.1784   16.9323   17.5235   17.9964   18.5959   19.0264   20.0219   20.3137
   20.7333   20.9963   21.9072   22.4013   22.7401   23.3807   23.4582   23.7353   24.1953   24.4212
   26.7493   30.0353   32.0893   32.3020   34.1228   34.4547   34.7065   35.4230   35.5767   38.7395
   40.2506   40.9622   42.5839   44.6162   45.5601   45.6318   46.8792   47.4832   47.8557   48.4983
   48.5608   48.7106   49.1113   51.9072   52.9778   53.4718   53.8918   54.8180   55.8320   57.3789
   59.9718   63.2179   64.8590   66.2452   66.5075   71.6569   73.1225   73.9697   74.6756   75.3786
   82.5098   87.7241   92.7430   94.6106   98.6091  101.9137  102.8280  103.4087  107.2162  112.2835
  121.4054  129.0944  135.2816  156.0908
  42  1  -21.5871  -20.7592  -19.4608  -17.8249  -14.8857  -12.8623  -11.9657  -11.1781  -10.8807   -9.8528
          -9.5551   -9.4094   -8.6436   -8.4004   -7.7678   -7.2673   -5.6717   -1.1130    0.9206    2.9543
    3.0833    3.1950    4.8616    5.5937    6.1327    7.2204    7.6296    7.9255    9.0138    9.2623
    9.6365   10.0834   10.2706   10.4757   10.7835   10.9987   11.3701   12.0029   12.0609   12.8668
   12.8784   12.9886   14.2139   16.9822   17.5235   17.9937   18.5912   18.9726   19.9791   20.2812
   20.7452   20.9425   21.8915   22.3824   22.7136   23.3549   23.4001   23.6027   24.1369   24.3990
   26.7255   30.0239   31.9123   32.1536   34.0587   34.3960   34.6404   35.2606   35.5202   38.6893
   40.4107   40.9205   42.6591   44.5816   45.4166   45.5622   46.9251   47.6308   47.9012   48.4000
   48.7169   48.8843   49.2827   51.8741   53.0521   53.0955   53.9759   54.8821   55.8025   57.5916
   59.9244   63.2172   65.0706   66.5303   66.6943   71.6237   73.2007   74.1346   74.6507   75.4321
   82.4068   88.0301   92.4920   94.7157   98.9380  102.6453  103.8326  104.0212  107.6383  112.9888
  120.8634  129.8565  135.3065  156.8283
  43  1  -21.5518  -20.7242  -19.4267  -17.7924  -14.8650  -12.8614  -12.0530  -11.2509  -10.9349   -9.8815
          -9.5133   -9.4948   -8.6025   -8.4177   -7.8141   -7.2270   -5.6301   -1.1467    0.8745    2.9667
    3.0152    3.2051    4.7731    5.5903    6.1102    7.2500    7.7671    8.0343    9.0522    9.3229
    9.7066   10.1419   10.2685   10.4442   10.7679   11.0070   11.4129   11.9926   12.0492   12.8302
   12.8836   13.0083   14.2483   17.0287   17.5240   17.9883   18.5910   18.9231   19.9363   20.2495
   20.7573   20.8897   21.8720   22.3634   22.6871   23.3309   23.3363   23.4689   24.0797   24.3777
   26.7045   30.0144   31.7364   32.0005   34.0014   34.3336   34.5730   35.0972   35.4630   38.6375
[...]
   25.1331   25.3117   27.9618   28.4865   32.0724   32.3206   32.3904   32.5666   34.1153   36.5955
   37.1547   37.5964   39.0790   39.2921   40.8006   42.2018   45.1097   48.1293   50.6146   52.2462
   52.3477   54.4471   55.6365   56.3032   57.0449   58.4994   58.8717   59.2315   59.9952   61.1137
   61.6678   64.8389   68.9800   69.2261   70.6551   71.0666   71.4541   75.4831   76.8189   77.1408
   80.4777   80.8188   88.1244   96.7115  101.0836  102.2133  108.2224  115.6719  119.7896  128.4508
  131.4912  142.6278  148.5710  161.4439
  88  2  -19.1176  -18.3415  -17.3559  -16.7114  -16.1834  -15.4539  -14.9222  -13.5581  -12.2391  -10.7123
         -10.5886   -9.6363   -9.5767   -6.7735   -6.0833   -5.2687   -3.8078   -3.1682   -1.6755   -0.8653
    0.1741    3.7671    4.0545    4.6078    5.5501    6.7201    7.7065    9.6709   10.2289   10.8039
   11.9671   11.9776   12.2951   12.5045   12.6454   12.6788   13.4312   13.8962   13.9562   14.3131
   14.9304   15.7696   16.0377   16.2331   16.7996   17.1169   18.3382   18.5818   18.7175   18.7799
   19.6823   20.2259   20.6825   20.7087   20.7661   21.6466   21.7945   21.9261   21.9555   24.3426
   25.0260   25.3157   27.8413   28.5660   32.0564   32.2739   32.3772   32.5596   34.1417   36.5160
   37.1033   37.6095   39.0054   39.2128   40.7486   42.1987   44.9387   48.2182   50.6500   52.4013
   52.4501   54.6293   55.5966   56.4137   57.0960   58.5779   58.8141   59.3890   59.8964   61.1197
   61.6984   64.6243   68.9438   69.5111   70.5945   71.0716   71.4726   75.3452   76.8440   77.2063
   80.5953   80.8164   87.7971   96.8737  101.2011  102.1621  108.0853  114.6720  120.1659  128.2758
  131.3230  142.9232  148.8953  160.7624
  89  2  -19.0463  -18.2744  -17.3683  -16.7190  -16.2520  -15.4006  -15.0054  -13.6403  -12.1822  -10.6738
         -10.6525   -9.6665   -9.5791   -6.6993   -6.0295   -5.2787   -3.8225   -3.1660   -1.6628   -0.9357
    0.0766    3.7952    4.0347    4.6490    5.4927    6.7448    7.6539    9.6932   10.1991   10.8563
   12.0039   12.0097   12.3293   12.5591   12.6101   12.7052   13.4477   13.8839   13.9856   14.3653
   14.9802   15.8461   16.1366   16.1746   16.7681   17.1495   18.3019   18.5967   18.6679   18.7288
   19.6442   20.2169   20.6868   20.7483   20.7525   21.6106   21.8475   21.8791   21.9714   24.2695
   24.9198   25.3372   27.7230   28.6452   32.0416   32.1755   32.4150   32.5536   34.1679   36.4422
   37.0545   37.6228   38.9385   39.1384   40.7002   42.2000   44.7724   48.3015   50.6824   52.5461
   52.5571   54.8140   55.5460   56.5285   57.1464   58.6498   58.7468   59.5373   59.7924   61.1235
   61.7272   64.4143   68.9104   69.7937   70.5396   71.0747   71.4952   75.1997   76.8686   77.2651
   80.7030   80.8285   87.4902   97.0484  101.3174  102.1063  107.9490  113.6859  120.5406  128.1263
  131.1369  143.2420  149.2029  160.0618
  90  2  -18.9743  -18.2075  -17.3979  -16.7100  -16.3217  -15.3432  -15.0875  -13.7220  -12.1245  -10.7243
         -10.6270   -9.7024   -9.5767   -6.6250   -5.9778   -5.2957   -3.8360   -3.1646   -1.6420   -1.0029
   -0.0199    3.8233    4.0159    4.6892    5.4373    6.7684    7.6027    9.7150   10.1710   10.9087
   12.0273   12.0504   12.3615   12.5727   12.6129   12.7296   13.4615   13.8692   14.0119   14.4164
   15.0292   15.9187   16.1171   16.2302   16.7370   17.1831   18.2703   18.6131   18.6205   18.6790
   19.6044   20.2093   20.6859   20.7406   20.7894   21.5719   21.8319   21.9030   21.9965   24.1900
   24.8165   25.3710   27.6073   28.7236   32.0281   32.0768   32.4528   32.5484   34.1938   36.3742
   37.0084   37.6359   38.8782   39.0688   40.6555   42.2058   44.6117   48.3788   50.7119   52.6352
   52.7132   55.0008   55.4862   56.6456   57.1956   58.6700   58.7151   59.6758   59.6847   61.1250
   61.7545   64.2107   68.8800   70.0736   70.4901   71.0763   71.5213   75.0468   76.8921   77.3172
   80.7747   80.8797   87.2038   97.2370  101.4317  102.0447  107.8146  112.7246  120.9119  127.9983
  130.9355  143.5844  149.4921  159.3471
  91  2  -18.9018  -18.1407  -17.4419  -16.6885  -16.3897  -15.2837  -15.1675  -13.8029  -12.0661  -10.7909
         -10.5853   -9.7403   -9.5730   -6.5507   -5.9286   -5.3195   -3.8481   -3.1640   -1.6135   -1.0664
   -0.1152    3.8511    3.9985    4.7280    5.3842    6.7907    7.5536    9.7360   10.1448   10.9608
   12.0480   12.0888   12.3914   12.5338   12.6657   12.7520   13.4729   13.8525   14.0348   14.4658
   15.0772   15.9869   16.0609   16.3178   16.7065   17.2172   18.2439   18.5756   18.6303   18.6308
   19.5637   20.2027   20.6802   20.7310   20.8319   21.5321   21.7845   21.9599   22.0289   24.1068
   24.7172   25.4136   27.4945   28.8005   31.9802   32.0158   32.4885   32.5439   34.2191   36.3119
   36.9652   37.6487   38.8246   39.0042   40.6144   42.2160   44.4574   48.4501   50.7386   52.7174
   52.8694   55.1891   55.4180   56.7639   57.2432   58.5838   58.7741   59.5741   59.8041   61.1243
   61.7805   64.0151   68.8525   70.3505   70.4461   71.0767   71.5497   74.8865   76.9142   77.3631
   80.8029   80.9752   86.9379   97.4405  101.5430  101.9759  107.6836  111.7986  121.2777  127.8890
  130.7217  143.9497  149.7612  158.6240
  92  2  -18.8287  -18.0745  -17.4965  -16.6624  -16.4510  -15.2574  -15.2110  -13.8832  -12.0070  -10.8576
         -10.5432   -9.7792   -9.5691   -6.4765   -5.8823   -5.3498   -3.8588   -3.1641   -1.5777   -1.1260
   -0.2094    3.8784    3.9825    4.7650    5.3339    6.8114    7.5070    9.7560   10.1206   11.0121
   12.0661   12.1248   12.4189   12.4939   12.7168   12.7726   13.4821   13.8344   14.0546   14.5132
   15.1242   16.0061   16.0503   16.3989   16.6769   17.2514   18.2225   18.5335   18.5843   18.6481
   19.5229   20.1972   20.6706   20.7235   20.8755   21.4928   21.7371   22.0166   22.0674   24.0224
   24.6226   25.4628   27.3851   28.8754   31.8871   32.0048   32.5216   32.5401   34.2434   36.2555
   36.9250   37.6610   38.7775   38.9444   40.5770   42.2305   44.3101   48.5151   50.7625   52.7924
   53.0253   55.3417   55.3786   56.8823   57.2887   58.4886   58.8269   59.4619   59.9217   61.1218
   61.8052   63.8293   68.8281   70.4071   70.6237   71.0764   71.5796   74.7189   76.9347   77.4031
   80.8209   81.0800   86.6930   97.6601  101.6500  101.8979  107.5573  110.9176  121.6355  127.7957
  130.4987  144.3365  150.0089  157.8986
  93  2  -18.7550  -18.0092  -17.5587  -16.6484  -16.4914  -15.3304  -15.1518  -13.9627  -11.9473  -10.9241
         -10.5011   -9.8187   -9.5653   -6.4024   -5.8392   -5.3861   -3.8682   -3.1644   -1.5354   -1.1810
   -0.3022    3.9048    3.9681    4.7996    5.2866    6.8305    7.4635    9.7745   10.0985   11.0622
   12.0818   12.1579   12.4438   12.4538   12.7654   12.7916   13.4896   13.8150   14.0715   14.5578
   15.1700   15.9529   16.1083   16.4729   16.6484   17.2852   18.2062   18.4944   18.5399   18.6657
   19.4827   20.1925   20.6591   20.7172   20.9200   21.4549   21.6896   22.0705   22.1121   23.9386
   24.5337   25.5164   27.2796   28.9474   31.7983   31.9949   32.5368   32.5519   34.2664   36.2049
   36.8880   37.6725   38.7369   38.8895   40.5435   42.2490   44.1710   48.5738   50.7836   52.8601
   53.1807   55.2583   55.5680   56.9997   57.3314   58.3849   58.8738   59.3490   60.0282   61.1178
   61.8289   63.6551   68.8067   70.3732   70.8913   71.0775   71.6099   74.5441   76.9532   77.4374
   80.8375   81.1829   86.4693   97.8963  101.7507  101.8090  107.4374  110.0910  121.9819  127.7164
  130.2706  144.7420  150.2337  157.1779
  94  2  -18.6808  -17.9453  -17.6260  -16.6710  -16.4881  -15.4065  -15.0864  -14.0415  -11.8871  -10.9904
         -10.4590   -9.8585   -9.5618   -6.3287   -5.7997   -5.4279   -3.8765   -3.1648   -1.4873   -1.2312
   -0.3935    3.9295    3.9557    4.8315    5.2430    6.8476    7.4236    9.7915   10.0787   11.1103
   12.0953   12.1880   12.4142   12.4662   12.8035   12.8166   13.4955   13.7949   14.0857   14.5993
   15.2146   15.9016   16.1605   16.5394   16.6215   17.3180   18.1951   18.4581   18.4983   18.6829
   19.4441   20.1886   20.6472   20.7116   20.9653   21.4194   21.6419   22.1191   22.1626   23.8571
   24.4511   25.5729   27.1787   29.0155   31.7150   31.9863   32.5342   32.5792   34.2878   36.1602
   36.8546   37.6832   38.7026   38.8397   40.5138   42.2710   44.0410   48.6260   50.8022   52.9202
   53.3351   55.1675   55.7569   57.1148   57.3708   58.2736   58.9148   59.2368   60.1231   61.1129
   61.8517   63.4942   68.7882   70.3439   71.0623   71.1708   71.6396   74.3623   76.9697   77.4666
   80.8539   81.2805   86.2676   98.1495  101.7015  101.8479  107.3255  109.3286  122.3131  127.6495
  130.0420  145.1622  150.4347  156.4701
  95  2  -18.6061  -17.8836  -17.6967  -16.7207  -16.4518  -15.4808  -15.0195  -14.1194  -11.8263  -11.0564
         -10.4171   -9.8985   -9.5587   -6.2553   -5.7644   -5.4746   -3.8838   -3.1649   -1.4341   -1.2759
   -0.4830    3.9414    3.9560    4.8603    5.2034    6.8628    7.3878    9.8066   10.0613   11.1556
   12.1067   12.2146   12.3760   12.4858   12.8200   12.8577   13.5002   13.7747   14.0975   14.6370
   15.2578   15.8525   16.2067   16.5965   16.5978   17.3490   18.1890   18.4242   18.4603   18.6989
   19.4079   20.1855   20.6357   20.7063   21.0110   21.3870   21.5943   22.1624   22.2163   23.7796
   24.3760   25.6307   27.0834   29.0786   31.6385   31.9788   32.5320   32.6031   34.3072   36.1214
   36.8248   37.6928   38.6746   38.7948   40.4879   42.2957   43.9216   48.6715   50.8181   52.9726
   53.4883   55.0698   55.9441   57.2257   57.4066   58.1559   58.9501   59.1267   60.2062   61.1074
   61.8735   63.3485   68.7726   70.3192   71.0659   71.4272   71.6676   74.1737   76.9841   77.4910
   80.8699   81.3708   86.0889   98.4193  101.5773  101.9346  107.2233  108.6400  122.6241  127.5937
  129.8184  145.5905  150.6109  155.7849
  96  2  -18.5310  -17.8251  -17.7696  -16.7771  -16.4037  -15.5522  -14.9517  -14.1963  -11.7650  -11.1221
         -10.3755   -9.9385   -9.5561   -6.1825   -5.7336   -5.5256   -3.8903   -3.1648   -1.3769   -1.3143
   -0.5705    3.9332    3.9759    4.8855    5.1684    6.8759    7.3565    9.8197   10.0463   11.1973
   12.1161   12.2375   12.3405   12.5026   12.8325   12.8967   13.5039   13.7551   14.1071   14.6703
   15.2993   15.8058   16.2463   16.5741   16.6478   17.3775   18.1879   18.3918   18.4273   18.7134
   19.3751   20.1829   20.6252   20.7015   21.0572   21.3583   21.5468   22.2013   22.2692   23.7078
   24.3094   25.6879   26.9949   29.1356   31.5701   31.9725   32.5302   32.6237   34.3243   36.0885
   36.7991   37.7012   38.6528   38.7551   40.4660   42.3219   43.8143   48.7102   50.8314   53.0172
   53.6398   54.9656   56.1279   57.3278   57.4397   58.0342   58.9797   59.0207   60.2770   61.1019
   61.8941   63.2197   68.7596   70.2986   71.0643   71.6842   71.6931   73.9783   76.9963   77.5110
   80.8846   81.4519   85.9341   98.7045  101.4293  102.0117  107.1327  108.0354  122.9090  127.5480
  129.6065  146.0175  150.7613  155.1350
  97  2  -18.4554  -17.8444  -17.7708  -16.8317  -16.3525  -15.6194  -14.8834  -14.2719  -11.7033  -11.1874
         -10.3345   -9.9783   -9.5538   -6.1103   -5.7081   -5.5802   -3.8959   -3.1643   -1.3496   -1.3132
   -0.6554    3.9255    3.9942    4.9068    5.1386    6.8868    7.3302    9.8306   10.0340   11.2341
   12.1236   12.2558   12.3092   12.5164   12.8426   12.9310   13.5068   13.7368   14.1146   14.6985
   15.3386   15.7621   16.2792   16.5547   16.6890   17.4025   18.1915   18.3601   18.4007   18.7259
   19.3465   20.1809   20.6163   20.6974   21.1034   21.3339   21.4995   22.2353   22.3182   23.6438
   24.2525   25.7422   26.9153   29.1850   31.5112   31.9674   32.5288   32.6407   34.3388   36.0616
   36.7776   37.7083   38.6370   38.7206   40.4481   42.3482   43.7211   48.7420   50.8422   53.0538
   53.7891   54.8550   56.3060   57.4055   57.4805   57.9126   58.9215   59.0039   60.3353   61.0967
   61.9131   63.1099   68.7492   70.2822   71.0624   71.7153   71.9371   73.7765   77.0063   77.5268
   80.8977   81.5218   85.8046   99.0031  101.2537  102.0777  107.0554  107.5250  123.1605  127.5116
  129.4140  146.4292  150.8854  154.5374
  98  2  -18.3795  -17.9199  -17.7238  -16.8802  -16.3028  -15.6803  -14.8152  -14.3456  -11.6413  -11.2522
         -10.2945  -10.0173   -9.5521   -6.0390   -5.6896   -5.6363   -3.9005   -3.1637   -1.3743   -1.2514
   -0.7366    3.9195    4.0093    4.9239    5.1146    6.8953    7.3093    9.8392   10.0243   11.2647
   12.1293   12.2660   12.2872   12.5272   12.8505   12.9593   13.5089   13.7210   14.1202   14.7213
   15.3748   15.7223   16.3050   16.5389   16.7212   17.4232   18.1996   18.3293   18.3806   18.7361
   19.3232   20.1794   20.6091   20.6940   21.1494   21.3143   21.4528   22.2636   22.3607   23.5898
   24.2065   25.7910   26.8471   29.2253   31.4633   31.9634   32.5277   32.6541   34.3504   36.0406
   36.7606   37.7139   38.6270   38.6915   40.4341   42.3725   43.6444   48.7669   50.8506   53.0824
   53.9360   54.7384   56.4742   57.4326   57.5458   57.8000   58.8332   59.0226   60.3810   61.0923
   61.9298   63.0211   68.7413   70.2695   71.0606   71.7333   72.1851   73.5684   77.0140   77.5388
   80.9084   81.5788   85.7018   99.3117  101.0477  102.1309  106.9922  107.1186  123.3701  127.4839
  129.2498  146.8046  150.9824  154.0149
  99  2  -18.3034  -17.9959  -17.6863  -16.9190  -16.2593  -15.7313  -14.7488  -14.4160  -11.5794  -11.3161
         -10.2568  -10.0543   -9.5508   -5.9688   -5.7065   -5.6655   -3.9039   -3.1630   -1.3929   -1.1892
   -0.8118    3.9151    4.0205    4.9363    5.0969    6.9015    7.2942    9.8454   10.0173   11.2879
   12.1334   12.2558   12.2877   12.5350   12.8561   12.9805   13.5104   13.7086   14.1242   14.7379
   15.4061   15.6886   16.3236   16.5272   16.7443   17.4387   18.2120   18.3001   18.3666   18.7436
   19.3059   20.1784   20.6038   20.6915   21.1941   21.3000   21.4076   22.2848   22.3938   23.5486
   24.1726   25.8304   26.7938   29.2554   31.4278   31.9606   32.5270   32.6637   34.3589   36.0256
   36.7483   37.7180   38.6227   38.6679   40.4241   42.3925   43.5867   48.7847   50.8566   53.1029
   54.0798   54.6162   56.6245   57.4202   57.6080   57.7147   58.7613   59.0359   60.4137   61.0890
   61.9430   62.9556   68.7357   70.2607   71.0591   71.7466   72.4273   73.3547   77.0196   77.5472
   80.9165   81.6210   85.6272   99.6249  100.8114  102.1700  106.8197  106.9493  123.5289  127.4644
  129.1233  147.1147  151.0521  153.5984
 100  2  -18.2273  -18.0720  -17.6618  -16.9445  -16.2282  -15.7668  -14.6894  -14.4777  -11.5192  -11.3775
         -10.2252  -10.0855   -9.5501   -5.9000   -5.7667   -5.6596   -3.9060   -3.1626   -1.4043   -1.1350
   -0.8737    3.9124    4.0274    4.9440    5.0860    6.9052    7.2850    9.8492   10.0131   11.3025
   12.1358   12.2441   12.2929   12.5397   12.8595   12.9937   13.5114   13.7007   14.1265   14.7480
   15.4288   15.6644   16.3349   16.5201   16.7581   17.4484   18.2282   18.2737   18.3584   18.7481
   19.2952   20.1778   20.6006   20.6899   21.2344   21.2913   21.3670   22.2981   22.4150   23.5225
   24.1518   25.8565   26.7595   29.2739   31.4060   31.9589   32.5266   32.6695   34.3640   36.0167
   36.7409   37.7204   38.6232   38.6506   40.4181   42.4058   43.5508   48.7955   50.8601   53.1152
   54.2202   54.4889   56.7395   57.3829   57.6327   57.6863   58.7134   59.0439   60.4334   61.0869
   61.9517   62.9152   68.7324   70.2554   71.0582   71.7548   72.6618   73.1374   77.0229   77.5522
   80.9214   81.6469   85.5819   99.9345  100.5493  102.1939  106.6406  106.9208  123.6284  127.4528
  129.0431  147.3236  151.0941  153.3251
 101  2  -18.1622  -18.1372  -17.6532  -16.9534  -16.2167  -15.7798  -14.6595  -14.5085  -11.4787  -11.4184
         -10.2108  -10.0998   -9.5498   -5.8393   -5.8253   -5.6569   -3.9068   -3.1624   -1.4081   -1.1098
   -0.9014    3.9116    4.0298    4.9465    5.0823    6.9065    7.2819    9.8505   10.0117   11.3074
   12.1366   12.2399   12.2949   12.5412   12.8606   12.9982   13.5117   13.6979   14.1272   14.7514
   15.4374   15.6553   16.3386   16.5177   16.7628   17.4516   18.2438   18.2547   18.3556   18.7497
   19.2916   20.1776   20.5995   20.6894   21.2552   21.2883   21.3461   22.3026   22.4223   23.5135
   24.1448   25.8657   26.7476   29.2802   31.3987   31.9583   32.5264   32.6714   34.3658   36.0137
   36.7384   37.7213   38.6252   38.6430   40.4161   42.4105   43.5386   48.7990   50.8613   53.1193
   54.3562   54.3573   56.7858   57.3599   57.6289   57.6926   58.6964   59.0465   60.4400   61.0862
   61.9547   62.9016   68.7313   70.2536   71.0579   71.7576   72.8418   72.9631   77.0240   77.5539
   80.9231   81.6557   85.5667  100.1748  100.3251  102.2020  106.5804  106.9113  123.6623  127.4490
  129.0155  147.3980  151.1081  153.2292

siesta: Program's energy decomposition (eV):
siesta: Ebs     =      -413.669630
siesta: Eions   =      2475.376297
siesta: Ena     =       756.279502
siesta: Ekin    =       906.395987
siesta: Enl     =       -38.264025
siesta: Eso     =         0.000000
siesta: Edftu   =         0.000000
siesta: DEna    =       -22.895877
siesta: DUscf   =         2.071930
siesta: DUext   =         0.000000
siesta: Exc     =      -393.305863
siesta: eta*DQ  =         0.000000
siesta: Emadel  =         0.000000
siesta: Emeta   =         0.000000
siesta: Emolmec =         0.000000
siesta: Ekinion =         0.000000
siesta: Eharris =     -1265.094644
siesta: Etot    =     -1265.094644
siesta: FreeEng =     -1265.094645

siesta: Final energy (eV):
siesta:  Band Struct. =    -413.669630
siesta:       Kinetic =     906.395987
siesta:       Hartree =    7689.255918
siesta:       Edftu   =       0.000000
siesta:       Eso     =       0.000000
siesta:    Ext. field =       0.000000
siesta:   Exch.-corr. =    -393.305863
siesta:  Ion-electron =  -16184.843272
siesta:       Ion-ion =    6717.402586
siesta:       Ekinion =       0.000000
siesta:         Total =   -1265.094644
siesta:         Fermi =      -3.470267

siesta: Atomic forces (eV/Ang):
siesta:      1    0.001941   -0.094115   -0.000000
siesta:      2    0.007311    0.086231    0.000000
siesta:      3    0.016202    0.004231   -0.000000
siesta:      4    0.026456    0.001068    0.000000
siesta:      5    0.025660   -0.006269   -0.000000
siesta:      6    0.017455   -0.016240   -0.000000
siesta:      7    0.028212   -0.023604    0.000000
siesta:      8   -0.002995   -0.006347   -0.000000
siesta:      9    0.019841   -0.076301    0.000000
siesta:     10    0.001007    0.094876   -0.000000
siesta: ----------------------------------------
siesta:    Tot    0.141090   -0.036472    0.000000

siesta: Stress tensor (static) (eV/Ang**3):
siesta:     0.000145    0.000013   -0.000000
siesta:     0.000013    0.000109    0.000000
siesta:    -0.000000   -0.000000    0.000001

siesta: Cell volume =       1863.750000 Ang**3

siesta: Pressure (static):
siesta:                Solid            Molecule  Units
siesta:          -0.00000093         -0.00000049  Ry/Bohr**3
siesta:          -0.00008512         -0.00004462  eV/Ang**3
siesta:          -0.13638527         -0.07149251  kBar
(Free)E+ p_basis*V_orbitals  =       -1262.295297
(Free)Eharris+ p_basis*V_orbitals  =       -1262.295297
     spin moment: S , {S} =   -0.00000       0.0       0.0  -0.00000

siesta: Electric dipole (a.u.)  =   -0.000000    0.000094   -0.000000
siesta: Electric dipole (Debye) =   -0.000000    0.000239   -0.000000

cite: Please see "zgnr.bib" for an exhaustive BiBTeX file.
cite: Please clearly indicate Siesta version in published work: 4.1.5
cite: This calculation has made use of the following articles
cite: which are encouraged to be cited in a published work.
        Primary SIESTA paper
          DOI: www.doi.org/10.1088/0953-8984/14/11/302

>> End of run:   8-APR-2025  15:35:07
Job completed
